<?xml version="1.0" encoding="UTF-8"?>

<!-- generated on 04/14/18 01:05:20 by SUMO Version 0.31.0
<?xml version="1.0" encoding="UTF-8"?>

<configuration xmlns:xsi="http://www.w3.org/2001/XMLSchema-instance" xsi:noNamespaceSchemaLocation="http://sumo.dlr.de/xsd/sumoConfiguration.xsd">

    <input>
        <net-file value="..\test_environments\grid_map\4by4.net.xml"/>
        <route-files value="..\test_environments\grid_map\4by4.rou.xml"/>
    </input>

    <output>
        <tripinfo-output value="tripinfo.xml"/>
    </output>

    <time>
        <begin value="0"/>
        <end value="10000"/>
    </time>

    <traci_server>
        <remote-port value="29401"/>
    </traci_server>

</configuration>
-->

<tripinfos xmlns:xsi="http://www.w3.org/2001/XMLSchema-instance" xsi:noNamespaceSchemaLocation="http://sumo.dlr.de/xsd/tripinfo_file.xsd">
    <tripinfo id="46" depart="22.00" departLane="0/3to0/2_0" departPos="5.10" departSpeed="0.00" departDelay="0.38" arrival="69.00" arrivalLane="0/3to0/2_0" arrivalPos="585.40" arrivalSpeed="13.34" duration="47.00" routeLength="580.30" waitSteps="0" timeLoss="4.78" rerouteNo="0" devices="tripinfo_46" vType="DEFAULT_VEHTYPE" speedFactor="1.00" vaporized=""/>
    <tripinfo id="15" depart="7.00" departLane="2/1to2/0_0" departPos="5.10" departSpeed="0.00" departDelay="-0.05" arrival="98.00" arrivalLane="2/0to1/0_0" arrivalPos="583.90" arrivalSpeed="13.00" duration="91.00" routeLength="1167.70" waitSteps="0" timeLoss="6.84" rerouteNo="0" devices="tripinfo_15" vType="DEFAULT_VEHTYPE" speedFactor="1.00" vaporized=""/>
    <tripinfo id="22" depart="10.00" departLane="3/2to3/3_0" departPos="5.10" departSpeed="0.00" departDelay="-0.34" arrival="103.00" arrivalLane="3/3to2/3_0" arrivalPos="585.40" arrivalSpeed="13.12" duration="93.00" routeLength="1184.25" waitSteps="0" timeLoss="6.92" rerouteNo="0" devices="tripinfo_22" vType="DEFAULT_VEHTYPE" speedFactor="1.00" vaporized=""/>
    <tripinfo id="142" depart="66.00" departLane="0/2to0/1_0" departPos="5.10" departSpeed="0.00" departDelay="-0.74" arrival="113.00" arrivalLane="0/2to0/1_0" arrivalPos="583.90" arrivalSpeed="13.89" duration="47.00" routeLength="578.80" waitSteps="0" timeLoss="4.35" rerouteNo="0" devices="tripinfo_142" vType="DEFAULT_VEHTYPE" speedFactor="1.00" vaporized=""/>
    <tripinfo id="76" depart="35.00" departLane="2/2to2/3_0" departPos="5.10" departSpeed="0.00" departDelay="-0.72" arrival="129.00" arrivalLane="2/3to2/2_1" arrivalPos="583.90" arrivalSpeed="13.72" duration="94.00" routeLength="1167.52" waitSteps="0" timeLoss="9.79" rerouteNo="0" devices="tripinfo_76" vType="DEFAULT_VEHTYPE" speedFactor="1.00" vaporized=""/>
    <tripinfo id="83" depart="39.00" departLane="2/3to3/3_0" departPos="5.10" departSpeed="0.00" departDelay="-0.01" arrival="131.00" arrivalLane="3/3to3/2_0" arrivalPos="585.40" arrivalSpeed="12.80" duration="92.00" routeLength="1168.28" waitSteps="0" timeLoss="7.08" rerouteNo="0" devices="tripinfo_83" vType="DEFAULT_VEHTYPE" speedFactor="1.00" vaporized=""/>
    <tripinfo id="180" depart="84.00" departLane="3/2to2/2_0" departPos="5.10" departSpeed="0.00" departDelay="-0.60" arrival="131.00" arrivalLane="3/2to2/2_0" arrivalPos="583.90" arrivalSpeed="13.23" duration="47.00" routeLength="578.80" waitSteps="0" timeLoss="4.47" rerouteNo="0" devices="tripinfo_180" vType="DEFAULT_VEHTYPE" speedFactor="1.00" vaporized=""/>
    <tripinfo id="7" depart="3.00" departLane="1/2to0/2_0" departPos="5.10" departSpeed="0.00" departDelay="-0.29" arrival="142.00" arrivalLane="0/1to0/2_1" arrivalPos="583.90" arrivalSpeed="12.64" duration="139.00" routeLength="1767.06" waitSteps="0" timeLoss="11.34" rerouteNo="0" devices="tripinfo_7" vType="DEFAULT_VEHTYPE" speedFactor="1.00" vaporized=""/>
    <tripinfo id="17" depart="7.00" departLane="3/1to2/1_0" departPos="5.10" departSpeed="0.00" departDelay="-0.99" arrival="143.00" arrivalLane="2/1to2/0_0" arrivalPos="583.90" arrivalSpeed="5.51" duration="136.00" routeLength="1178.34" waitSteps="37" timeLoss="51.04" rerouteNo="0" devices="tripinfo_17" vType="DEFAULT_VEHTYPE" speedFactor="1.00" vaporized=""/>
    <tripinfo id="220" depart="103.00" departLane="1/3to2/3_0" departPos="5.10" departSpeed="0.00" departDelay="-0.40" arrival="150.00" arrivalLane="1/3to2/3_0" arrivalPos="583.90" arrivalSpeed="13.62" duration="47.00" routeLength="578.80" waitSteps="0" timeLoss="5.15" rerouteNo="0" devices="tripinfo_220" vType="DEFAULT_VEHTYPE" speedFactor="1.00" vaporized=""/>
    <tripinfo id="40" depart="18.00" departLane="0/3to1/3_0" departPos="5.10" departSpeed="0.00" departDelay="-0.80" arrival="155.00" arrivalLane="1/2to0/2_0" arrivalPos="583.90" arrivalSpeed="13.82" duration="137.00" routeLength="1758.10" waitSteps="0" timeLoss="9.47" rerouteNo="0" devices="tripinfo_40" vType="DEFAULT_VEHTYPE" speedFactor="1.00" vaporized=""/>
    <tripinfo id="51" depart="23.00" departLane="1/2to2/2_0" departPos="5.10" departSpeed="0.00" departDelay="-0.97" arrival="159.00" arrivalLane="2/1to1/1_0" arrivalPos="583.90" arrivalSpeed="13.03" duration="136.00" routeLength="1756.60" waitSteps="0" timeLoss="9.05" rerouteNo="0" devices="tripinfo_51" vType="DEFAULT_VEHTYPE" speedFactor="1.00" vaporized=""/>
    <tripinfo id="52" depart="24.00" departLane="1/2to0/2_0" departPos="5.10" departSpeed="0.00" departDelay="-0.44" arrival="160.00" arrivalLane="0/3to1/3_1" arrivalPos="585.40" arrivalSpeed="12.72" duration="136.00" routeLength="1757.18" waitSteps="0" timeLoss="9.08" rerouteNo="0" devices="tripinfo_52" vType="DEFAULT_VEHTYPE" speedFactor="1.00" vaporized=""/>
    <tripinfo id="153" depart="71.00" departLane="3/3to3/2_0" departPos="5.10" departSpeed="0.00" departDelay="-0.91" arrival="163.00" arrivalLane="3/2to3/1_0" arrivalPos="583.90" arrivalSpeed="13.44" duration="92.00" routeLength="1180.30" waitSteps="0" timeLoss="6.47" rerouteNo="0" devices="tripinfo_153" vType="DEFAULT_VEHTYPE" speedFactor="1.00" vaporized=""/>
    <tripinfo id="69" depart="32.00" departLane="0/2to0/3_0" departPos="5.10" departSpeed="0.00" departDelay="-0.43" arrival="170.00" arrivalLane="1/3to0/3_0" arrivalPos="585.40" arrivalSpeed="13.39" duration="138.00" routeLength="1758.50" waitSteps="0" timeLoss="10.76" rerouteNo="0" devices="tripinfo_69" vType="DEFAULT_VEHTYPE" speedFactor="1.00" vaporized=""/>
    <tripinfo id="121" depart="56.00" departLane="1/1to2/1_0" departPos="5.10" departSpeed="0.00" departDelay="-0.87" arrival="181.00" arrivalLane="2/1to2/0_0" arrivalPos="583.90" arrivalSpeed="13.60" duration="125.00" routeLength="1167.70" waitSteps="29" timeLoss="40.91" rerouteNo="0" devices="tripinfo_121" vType="DEFAULT_VEHTYPE" speedFactor="1.00" vaporized=""/>
    <tripinfo id="36" depart="16.00" departLane="1/2to2/2_0" departPos="5.10" departSpeed="0.00" departDelay="-0.92" arrival="183.00" arrivalLane="2/1to2/2_1" arrivalPos="583.90" arrivalSpeed="5.98" duration="167.00" routeLength="1756.42" waitSteps="25" timeLoss="40.34" rerouteNo="0" devices="tripinfo_36" vType="DEFAULT_VEHTYPE" speedFactor="1.00" vaporized=""/>
    <tripinfo id="102" depart="47.00" departLane="2/0to1/0_0" departPos="5.10" departSpeed="0.00" departDelay="-0.94" arrival="184.00" arrivalLane="1/0to1/1_0" arrivalPos="583.90" arrivalSpeed="5.62" duration="137.00" routeLength="1167.70" waitSteps="39" timeLoss="52.60" rerouteNo="0" devices="tripinfo_102" vType="DEFAULT_VEHTYPE" speedFactor="1.00" vaporized=""/>
    <tripinfo id="49" depart="23.00" departLane="2/3to1/3_0" departPos="5.10" departSpeed="0.00" departDelay="-0.03" arrival="184.00" arrivalLane="1/3to1/2_0" arrivalPos="583.90" arrivalSpeed="5.98" duration="161.00" routeLength="1178.34" waitSteps="57" timeLoss="75.76" rerouteNo="0" devices="tripinfo_49" vType="DEFAULT_VEHTYPE" speedFactor="1.00" vaporized=""/>
    <tripinfo id="5" depart="3.00" departLane="1/3to1/2_0" departPos="5.10" departSpeed="0.00" departDelay="0.65" arrival="186.00" arrivalLane="2/2to2/3_0" arrivalPos="583.90" arrivalSpeed="12.78" duration="183.00" routeLength="1777.88" waitSteps="37" timeLoss="54.53" rerouteNo="0" devices="tripinfo_5" vType="DEFAULT_VEHTYPE" speedFactor="1.00" vaporized=""/>
    <tripinfo id="56" depart="26.00" departLane="1/2to2/2_0" departPos="5.10" departSpeed="0.00" departDelay="-0.32" arrival="187.00" arrivalLane="3/2to2/2_1" arrivalPos="583.90" arrivalSpeed="13.15" duration="161.00" routeLength="1767.52" waitSteps="19" timeLoss="33.63" rerouteNo="0" devices="tripinfo_56" vType="DEFAULT_VEHTYPE" speedFactor="1.00" vaporized=""/>
    <tripinfo id="42" depart="19.00" departLane="0/3to0/2_0" departPos="5.10" departSpeed="0.00" departDelay="-0.74" arrival="187.00" arrivalLane="1/2to2/2_0" arrivalPos="583.90" arrivalSpeed="13.58" duration="168.00" routeLength="1779.84" waitSteps="22" timeLoss="39.42" rerouteNo="0" devices="tripinfo_42" vType="DEFAULT_VEHTYPE" speedFactor="1.00" vaporized=""/>
    <tripinfo id="128" depart="60.00" departLane="2/1to3/1_0" departPos="5.10" departSpeed="0.00" departDelay="-0.16" arrival="188.00" arrivalLane="3/1to3/0_0" arrivalPos="585.40" arrivalSpeed="12.73" duration="128.00" routeLength="1169.20" waitSteps="29" timeLoss="42.92" rerouteNo="0" devices="tripinfo_128" vType="DEFAULT_VEHTYPE" speedFactor="1.00" vaporized=""/>
    <tripinfo id="13" depart="6.00" departLane="1/2to1/1_0" departPos="5.10" departSpeed="0.00" departDelay="-0.11" arrival="188.00" arrivalLane="0/1to0/2_0" arrivalPos="583.90" arrivalSpeed="12.89" duration="182.00" routeLength="1756.60" waitSteps="35" timeLoss="54.71" rerouteNo="0" devices="tripinfo_13" vType="DEFAULT_VEHTYPE" speedFactor="1.00" vaporized=""/>
    <tripinfo id="182" depart="87.00" departLane="2/1to1/1_0" departPos="5.10" departSpeed="0.00" departDelay="1.46" arrival="190.00" arrivalLane="1/1to1/2_1" arrivalPos="583.90" arrivalSpeed="10.55" duration="103.00" routeLength="1167.70" waitSteps="0" timeLoss="18.44" rerouteNo="0" devices="tripinfo_182" vType="DEFAULT_VEHTYPE" speedFactor="1.00" vaporized=""/>
    <tripinfo id="119" depart="56.00" departLane="2/1to1/1_0" departPos="5.10" departSpeed="0.00" departDelay="0.07" arrival="191.00" arrivalLane="1/1to1/0_0" arrivalPos="583.90" arrivalSpeed="13.05" duration="135.00" routeLength="1178.34" waitSteps="30" timeLoss="49.27" rerouteNo="0" devices="tripinfo_119" vType="DEFAULT_VEHTYPE" speedFactor="1.00" vaporized=""/>
    <tripinfo id="110" depart="51.00" departLane="1/2to1/1_0" departPos="5.10" departSpeed="0.00" departDelay="-0.70" arrival="192.00" arrivalLane="0/1to0/0_0" arrivalPos="585.40" arrivalSpeed="13.52" duration="141.00" routeLength="1768.74" waitSteps="0" timeLoss="13.26" rerouteNo="0" devices="tripinfo_110" vType="DEFAULT_VEHTYPE" speedFactor="1.00" vaporized=""/>
    <tripinfo id="20" depart="9.00" departLane="1/2to2/2_0" departPos="5.10" departSpeed="0.00" departDelay="-0.40" arrival="194.00" arrivalLane="3/1to3/2_0" arrivalPos="583.90" arrivalSpeed="12.96" duration="185.00" routeLength="2366.78" waitSteps="0" timeLoss="13.80" rerouteNo="0" devices="tripinfo_20" vType="DEFAULT_VEHTYPE" speedFactor="1.00" vaporized=""/>
    <tripinfo id="24" depart="11.00" departLane="1/1to1/0_0" departPos="5.10" departSpeed="0.00" departDelay="-0.28" arrival="198.00" arrivalLane="0/1to0/0_0" arrivalPos="585.40" arrivalSpeed="13.02" duration="187.00" routeLength="2368.10" waitSteps="0" timeLoss="15.91" rerouteNo="0" devices="tripinfo_24" vType="DEFAULT_VEHTYPE" speedFactor="1.00" vaporized=""/>
    <tripinfo id="139" depart="65.00" departLane="2/3to1/3_0" departPos="5.10" departSpeed="0.00" departDelay="-0.33" arrival="203.00" arrivalLane="2/3to2/2_0" arrivalPos="583.90" arrivalSpeed="12.70" duration="138.00" routeLength="1756.42" waitSteps="0" timeLoss="11.15" rerouteNo="0" devices="tripinfo_139" vType="DEFAULT_VEHTYPE" speedFactor="1.00" vaporized=""/>
    <tripinfo id="335" depart="157.00" departLane="2/3to1/3_0" departPos="5.10" departSpeed="0.00" departDelay="-0.45" arrival="205.00" arrivalLane="2/3to1/3_0" arrivalPos="583.90" arrivalSpeed="13.65" duration="48.00" routeLength="578.80" waitSteps="0" timeLoss="5.37" rerouteNo="0" devices="tripinfo_335" vType="DEFAULT_VEHTYPE" speedFactor="1.00" vaporized=""/>
    <tripinfo id="253" depart="118.00" departLane="2/1to2/0_0" departPos="5.10" departSpeed="0.00" departDelay="-0.91" arrival="210.00" arrivalLane="2/0to2/1_0" arrivalPos="583.90" arrivalSpeed="13.71" duration="92.00" routeLength="1167.52" waitSteps="0" timeLoss="7.90" rerouteNo="0" devices="tripinfo_253" vType="DEFAULT_VEHTYPE" speedFactor="1.00" vaporized=""/>
    <tripinfo id="58" depart="27.00" departLane="1/1to1/0_0" departPos="5.10" departSpeed="0.00" departDelay="-0.26" arrival="210.00" arrivalLane="3/0to3/1_0" arrivalPos="585.40" arrivalSpeed="12.65" duration="183.00" routeLength="2383.79" waitSteps="0" timeLoss="11.22" rerouteNo="0" devices="tripinfo_58" vType="DEFAULT_VEHTYPE" speedFactor="1.00" vaporized=""/>
    <tripinfo id="61" depart="29.00" departLane="1/2to2/2_0" departPos="5.10" departSpeed="0.00" departDelay="0.33" arrival="214.00" arrivalLane="2/0to2/1_0" arrivalPos="583.90" arrivalSpeed="13.32" duration="185.00" routeLength="2356.42" waitSteps="0" timeLoss="14.75" rerouteNo="0" devices="tripinfo_61" vType="DEFAULT_VEHTYPE" speedFactor="1.00" vaporized=""/>
    <tripinfo id="1" depart="0.00" departLane="1/3to1/2_0" departPos="5.10" departSpeed="0.00" departDelay="-0.47" arrival="227.00" arrivalLane="1/1to1/0_0" arrivalPos="583.90" arrivalSpeed="12.82" duration="227.00" routeLength="1778.80" waitSteps="77" timeLoss="98.61" rerouteNo="0" devices="tripinfo_1" vType="DEFAULT_VEHTYPE" speedFactor="1.00" vaporized=""/>
    <tripinfo id="59" depart="27.00" departLane="2/3to2/2_0" departPos="5.10" departSpeed="0.00" departDelay="-0.73" arrival="227.00" arrivalLane="2/1to2/2_0" arrivalPos="583.90" arrivalSpeed="13.39" duration="200.00" routeLength="1767.52" waitSteps="52" timeLoss="72.21" rerouteNo="0" devices="tripinfo_59" vType="DEFAULT_VEHTYPE" speedFactor="1.00" vaporized=""/>
    <tripinfo id="202" depart="94.00" departLane="3/1to3/2_0" departPos="5.10" departSpeed="0.00" departDelay="-0.94" arrival="228.00" arrivalLane="3/2to3/3_1" arrivalPos="585.40" arrivalSpeed="13.74" duration="134.00" routeLength="1180.30" waitSteps="35" timeLoss="48.98" rerouteNo="0" devices="tripinfo_202" vType="DEFAULT_VEHTYPE" speedFactor="1.00" vaporized=""/>
    <tripinfo id="63" depart="29.00" departLane="3/2to3/1_0" departPos="5.10" departSpeed="0.00" departDelay="-0.61" arrival="228.00" arrivalLane="3/2to3/3_0" arrivalPos="585.40" arrivalSpeed="13.21" duration="199.00" routeLength="1769.02" waitSteps="50" timeLoss="71.28" rerouteNo="0" devices="tripinfo_63" vType="DEFAULT_VEHTYPE" speedFactor="1.00" vaporized=""/>
    <tripinfo id="105" depart="49.00" departLane="1/3to2/3_0" departPos="5.10" departSpeed="0.00" departDelay="-0.35" arrival="228.00" arrivalLane="2/2to2/1_1" arrivalPos="583.90" arrivalSpeed="13.11" duration="179.00" routeLength="1767.70" waitSteps="37" timeLoss="51.18" rerouteNo="0" devices="tripinfo_105" vType="DEFAULT_VEHTYPE" speedFactor="1.00" vaporized=""/>
    <tripinfo id="112" depart="52.00" departLane="2/0to3/0_0" departPos="5.10" departSpeed="0.00" departDelay="-0.64" arrival="228.00" arrivalLane="3/1to3/2_0" arrivalPos="583.90" arrivalSpeed="12.80" duration="176.00" routeLength="1784.25" waitSteps="33" timeLoss="46.69" rerouteNo="0" devices="tripinfo_112" vType="DEFAULT_VEHTYPE" speedFactor="1.00" vaporized=""/>
    <tripinfo id="30" depart="14.00" departLane="0/1to1/1_0" departPos="5.10" departSpeed="0.00" departDelay="-0.10" arrival="228.00" arrivalLane="2/2to1/2_0" arrivalPos="583.90" arrivalSpeed="6.34" duration="214.00" routeLength="2355.96" waitSteps="21" timeLoss="44.16" rerouteNo="0" devices="tripinfo_30" vType="DEFAULT_VEHTYPE" speedFactor="1.00" vaporized=""/>
    <tripinfo id="53" depart="25.00" departLane="0/3to0/2_0" departPos="5.10" departSpeed="0.00" departDelay="0.09" arrival="229.00" arrivalLane="0/1to0/0_0" arrivalPos="585.40" arrivalSpeed="13.90" duration="204.00" routeLength="1781.80" waitSteps="51" timeLoss="74.95" rerouteNo="0" devices="tripinfo_53" vType="DEFAULT_VEHTYPE" speedFactor="1.00" vaporized=""/>
    <tripinfo id="384" depart="182.00" departLane="2/0to3/0_0" departPos="5.10" departSpeed="0.00" departDelay="1.52" arrival="229.00" arrivalLane="2/0to3/0_0" arrivalPos="585.40" arrivalSpeed="13.11" duration="47.00" routeLength="580.30" waitSteps="0" timeLoss="5.12" rerouteNo="0" devices="tripinfo_384" vType="DEFAULT_VEHTYPE" speedFactor="1.00" vaporized=""/>
    <tripinfo id="169" depart="79.00" departLane="2/3to2/2_0" departPos="5.10" departSpeed="0.00" departDelay="-0.43" arrival="229.00" arrivalLane="2/2to2/1_0" arrivalPos="583.90" arrivalSpeed="13.45" duration="150.00" routeLength="1178.80" waitSteps="50" timeLoss="64.25" rerouteNo="0" devices="tripinfo_169" vType="DEFAULT_VEHTYPE" speedFactor="1.00" vaporized=""/>
    <tripinfo id="12" depart="5.00" departLane="1/1to1/2_0" departPos="5.10" departSpeed="0.00" departDelay="-0.64" arrival="230.00" arrivalLane="0/3to1/3_1" arrivalPos="585.40" arrivalSpeed="13.18" duration="225.00" routeLength="2356.72" waitSteps="34" timeLoss="54.98" rerouteNo="0" devices="tripinfo_12" vType="DEFAULT_VEHTYPE" speedFactor="1.00" vaporized=""/>
    <tripinfo id="278" depart="130.00" departLane="3/1to3/2_0" departPos="5.10" departSpeed="0.00" departDelay="-0.66" arrival="230.00" arrivalLane="3/2to3/3_0" arrivalPos="585.40" arrivalSpeed="13.83" duration="100.00" routeLength="1180.30" waitSteps="1" timeLoss="14.51" rerouteNo="0" devices="tripinfo_278" vType="DEFAULT_VEHTYPE" speedFactor="1.00" vaporized=""/>
    <tripinfo id="73" depart="34.00" departLane="0/1to1/1_0" departPos="5.10" departSpeed="0.00" departDelay="-0.31" arrival="231.00" arrivalLane="1/2to2/2_0" arrivalPos="583.90" arrivalSpeed="8.67" duration="197.00" routeLength="1767.24" waitSteps="50" timeLoss="69.26" rerouteNo="0" devices="tripinfo_73" vType="DEFAULT_VEHTYPE" speedFactor="1.00" vaporized=""/>
    <tripinfo id="122" depart="57.00" departLane="0/2to1/2_0" departPos="5.10" departSpeed="0.00" departDelay="-0.34" arrival="233.00" arrivalLane="1/2to1/3_1" arrivalPos="583.90" arrivalSpeed="6.65" duration="176.00" routeLength="1178.34" waitSteps="70" timeLoss="90.86" rerouteNo="0" devices="tripinfo_122" vType="DEFAULT_VEHTYPE" speedFactor="1.00" vaporized=""/>
    <tripinfo id="281" depart="132.00" departLane="0/0to0/1_0" departPos="5.10" departSpeed="0.00" departDelay="-0.07" arrival="234.00" arrivalLane="0/1to0/0_0" arrivalPos="585.40" arrivalSpeed="13.03" duration="102.00" routeLength="1170.52" waitSteps="1" timeLoss="17.14" rerouteNo="0" devices="tripinfo_281" vType="DEFAULT_VEHTYPE" speedFactor="1.00" vaporized=""/>
    <tripinfo id="129" depart="60.00" departLane="2/3to3/3_0" departPos="5.10" departSpeed="0.00" departDelay="-0.63" arrival="235.00" arrivalLane="2/3to1/3_0" arrivalPos="583.90" arrivalSpeed="13.17" duration="175.00" routeLength="1770.52" waitSteps="23" timeLoss="47.45" rerouteNo="0" devices="tripinfo_129" vType="DEFAULT_VEHTYPE" speedFactor="1.00" vaporized=""/>
    <tripinfo id="16" depart="7.00" departLane="2/2to2/3_0" departPos="5.10" departSpeed="0.00" departDelay="-0.52" arrival="235.00" arrivalLane="1/2to0/2_0" arrivalPos="583.90" arrivalSpeed="7.54" duration="228.00" routeLength="2366.78" waitSteps="31" timeLoss="57.56" rerouteNo="0" devices="tripinfo_16" vType="DEFAULT_VEHTYPE" speedFactor="1.00" vaporized=""/>
    <tripinfo id="403" depart="189.00" departLane="2/0to3/0_0" departPos="5.10" departSpeed="0.00" departDelay="-0.41" arrival="236.00" arrivalLane="2/0to3/0_0" arrivalPos="585.40" arrivalSpeed="13.88" duration="47.00" routeLength="580.30" waitSteps="0" timeLoss="5.20" rerouteNo="0" devices="tripinfo_403" vType="DEFAULT_VEHTYPE" speedFactor="1.00" vaporized=""/>
    <tripinfo id="146" depart="68.00" departLane="1/2to1/1_0" departPos="5.10" departSpeed="0.00" departDelay="-0.62" arrival="237.00" arrivalLane="1/2to2/2_0" arrivalPos="583.90" arrivalSpeed="12.61" duration="169.00" routeLength="1756.42" waitSteps="23" timeLoss="41.86" rerouteNo="0" devices="tripinfo_146" vType="DEFAULT_VEHTYPE" speedFactor="1.00" vaporized=""/>
    <tripinfo id="171" depart="80.00" departLane="1/1to0/1_0" departPos="5.10" departSpeed="0.00" departDelay="-0.37" arrival="238.00" arrivalLane="0/0to0/1_1" arrivalPos="585.40" arrivalSpeed="12.88" duration="158.00" routeLength="1770.06" waitSteps="10" timeLoss="30.25" rerouteNo="0" devices="tripinfo_171" vType="DEFAULT_VEHTYPE" speedFactor="1.00" vaporized=""/>
    <tripinfo id="306" depart="143.00" departLane="3/0to3/1_0" departPos="5.10" departSpeed="0.00" departDelay="-0.82" arrival="238.00" arrivalLane="3/1to2/1_1" arrivalPos="583.90" arrivalSpeed="13.84" duration="95.00" routeLength="1179.84" waitSteps="0" timeLoss="9.52" rerouteNo="0" devices="tripinfo_306" vType="DEFAULT_VEHTYPE" speedFactor="1.00" vaporized=""/>
    <tripinfo id="311" depart="146.00" departLane="2/3to2/2_0" departPos="5.10" departSpeed="0.00" departDelay="-0.17" arrival="239.00" arrivalLane="2/2to2/3_0" arrivalPos="583.90" arrivalSpeed="12.95" duration="93.00" routeLength="1167.52" waitSteps="0" timeLoss="8.43" rerouteNo="0" devices="tripinfo_311" vType="DEFAULT_VEHTYPE" speedFactor="1.00" vaporized=""/>
    <tripinfo id="113" depart="53.00" departLane="2/0to2/1_0" departPos="5.10" departSpeed="0.00" departDelay="-0.11" arrival="239.00" arrivalLane="1/2to2/2_0" arrivalPos="583.90" arrivalSpeed="13.78" duration="186.00" routeLength="2356.14" waitSteps="0" timeLoss="15.50" rerouteNo="0" devices="tripinfo_113" vType="DEFAULT_VEHTYPE" speedFactor="1.00" vaporized=""/>
    <tripinfo id="315" depart="148.00" departLane="3/3to2/3_0" departPos="5.10" departSpeed="0.00" departDelay="-0.05" arrival="240.00" arrivalLane="2/3to1/3_0" arrivalPos="583.90" arrivalSpeed="12.70" duration="92.00" routeLength="1180.30" waitSteps="0" timeLoss="6.90" rerouteNo="0" devices="tripinfo_315" vType="DEFAULT_VEHTYPE" speedFactor="1.00" vaporized=""/>
    <tripinfo id="178" depart="83.00" departLane="0/1to1/1_0" departPos="5.10" departSpeed="0.00" departDelay="-0.66" arrival="243.00" arrivalLane="1/2to1/3_1" arrivalPos="583.90" arrivalSpeed="7.20" duration="160.00" routeLength="1778.34" waitSteps="5" timeLoss="31.96" rerouteNo="0" devices="tripinfo_178" vType="DEFAULT_VEHTYPE" speedFactor="1.00" vaporized=""/>
    <tripinfo id="8" depart="3.00" departLane="2/2to3/2_0" departPos="5.10" departSpeed="0.00" departDelay="-0.76" arrival="244.00" arrivalLane="2/1to1/1_1" arrivalPos="583.90" arrivalSpeed="9.16" duration="241.00" routeLength="2355.96" waitSteps="40" timeLoss="70.97" rerouteNo="0" devices="tripinfo_8" vType="DEFAULT_VEHTYPE" speedFactor="1.00" vaporized=""/>
    <tripinfo id="98" depart="48.00" departLane="2/1to2/0_0" departPos="5.10" departSpeed="0.00" departDelay="1.94" arrival="246.00" arrivalLane="2/1to1/1_1" arrivalPos="583.90" arrivalSpeed="11.71" duration="198.00" routeLength="1767.06" waitSteps="44" timeLoss="70.11" rerouteNo="0" devices="tripinfo_98" vType="DEFAULT_VEHTYPE" speedFactor="1.00" vaporized=""/>
    <tripinfo id="259" depart="121.00" departLane="3/0to2/0_0" departPos="5.10" departSpeed="0.00" departDelay="-0.73" arrival="246.00" arrivalLane="2/0to1/0_0" arrivalPos="583.90" arrivalSpeed="6.27" duration="125.00" routeLength="1180.30" waitSteps="20" timeLoss="39.72" rerouteNo="0" devices="tripinfo_259" vType="DEFAULT_VEHTYPE" speedFactor="1.00" vaporized=""/>
    <tripinfo id="11" depart="5.00" departLane="3/0to2/0_0" departPos="5.10" departSpeed="0.00" departDelay="-0.17" arrival="247.00" arrivalLane="1/1to1/0_0" arrivalPos="583.90" arrivalSpeed="12.72" duration="242.00" routeLength="2357.92" waitSteps="34" timeLoss="71.40" rerouteNo="0" devices="tripinfo_11" vType="DEFAULT_VEHTYPE" speedFactor="1.00" vaporized=""/>
    <tripinfo id="266" depart="125.00" departLane="3/0to2/0_0" departPos="5.10" departSpeed="0.00" departDelay="-0.02" arrival="251.00" arrivalLane="2/0to1/0_0" arrivalPos="583.90" arrivalSpeed="7.06" duration="126.00" routeLength="1180.30" waitSteps="18" timeLoss="40.57" rerouteNo="0" devices="tripinfo_266" vType="DEFAULT_VEHTYPE" speedFactor="1.00" vaporized=""/>
    <tripinfo id="244" depart="114.00" departLane="2/2to3/2_0" departPos="5.10" departSpeed="0.00" departDelay="-0.68" arrival="252.00" arrivalLane="3/1to3/2_0" arrivalPos="583.90" arrivalSpeed="12.74" duration="138.00" routeLength="1756.42" waitSteps="0" timeLoss="10.89" rerouteNo="0" devices="tripinfo_244" vType="DEFAULT_VEHTYPE" speedFactor="1.00" vaporized=""/>
    <tripinfo id="301" depart="155.00" departLane="1/0to1/1_0" departPos="5.10" departSpeed="0.00" departDelay="13.53" arrival="254.00" arrivalLane="1/1to0/1_1" arrivalPos="583.90" arrivalSpeed="12.66" duration="99.00" routeLength="1178.34" waitSteps="0" timeLoss="13.87" rerouteNo="0" devices="tripinfo_301" vType="DEFAULT_VEHTYPE" speedFactor="1.00" vaporized=""/>
    <tripinfo id="359" depart="168.00" departLane="2/0to3/0_0" departPos="5.10" departSpeed="0.00" departDelay="-0.73" arrival="261.00" arrivalLane="3/0to3/1_0" arrivalPos="585.40" arrivalSpeed="13.60" duration="93.00" routeLength="1184.25" waitSteps="0" timeLoss="7.46" rerouteNo="0" devices="tripinfo_359" vType="DEFAULT_VEHTYPE" speedFactor="1.00" vaporized=""/>
    <tripinfo id="187" depart="87.00" departLane="2/0to1/0_0" departPos="5.10" departSpeed="0.00" departDelay="-0.89" arrival="273.00" arrivalLane="3/0to2/0_1" arrivalPos="585.40" arrivalSpeed="12.96" duration="186.00" routeLength="2359.24" waitSteps="0" timeLoss="16.09" rerouteNo="0" devices="tripinfo_187" vType="DEFAULT_VEHTYPE" speedFactor="1.00" vaporized=""/>
    <tripinfo id="115" depart="54.00" departLane="2/2to2/3_0" departPos="5.10" departSpeed="0.00" departDelay="-0.05" arrival="273.00" arrivalLane="1/3to2/3_0" arrivalPos="583.90" arrivalSpeed="5.96" duration="219.00" routeLength="1767.06" waitSteps="60" timeLoss="91.60" rerouteNo="0" devices="tripinfo_115" vType="DEFAULT_VEHTYPE" speedFactor="1.00" vaporized=""/>
    <tripinfo id="426" depart="201.00" departLane="3/2to3/1_0" departPos="5.10" departSpeed="0.00" departDelay="0.78" arrival="273.00" arrivalLane="3/2to3/1_1" arrivalPos="583.90" arrivalSpeed="4.61" duration="72.00" routeLength="578.80" waitSteps="21" timeLoss="30.25" rerouteNo="0" devices="tripinfo_426" vType="DEFAULT_VEHTYPE" speedFactor="1.00" vaporized=""/>
    <tripinfo id="292" depart="137.00" departLane="3/1to2/1_0" departPos="5.10" departSpeed="0.00" departDelay="-0.24" arrival="273.00" arrivalLane="2/1to1/1_1" arrivalPos="583.90" arrivalSpeed="13.90" duration="136.00" routeLength="1178.80" waitSteps="40" timeLoss="50.95" rerouteNo="0" devices="tripinfo_292" vType="DEFAULT_VEHTYPE" speedFactor="1.00" vaporized=""/>
    <tripinfo id="103" depart="50.00" departLane="0/3to0/2_0" departPos="5.10" departSpeed="0.00" departDelay="1.59" arrival="273.00" arrivalLane="2/2to3/2_0" arrivalPos="583.90" arrivalSpeed="13.60" duration="223.00" routeLength="2379.84" waitSteps="33" timeLoss="50.85" rerouteNo="0" devices="tripinfo_103" vType="DEFAULT_VEHTYPE" speedFactor="1.00" vaporized=""/>
    <tripinfo id="45" depart="21.00" departLane="2/1to2/0_0" departPos="5.10" departSpeed="0.00" departDelay="-0.15" arrival="273.00" arrivalLane="1/1to1/2_1" arrivalPos="583.90" arrivalSpeed="4.48" duration="252.00" routeLength="2356.60" waitSteps="58" timeLoss="82.33" rerouteNo="0" devices="tripinfo_45" vType="DEFAULT_VEHTYPE" speedFactor="1.00" vaporized=""/>
    <tripinfo id="54" depart="25.00" departLane="3/1to3/0_0" departPos="5.10" departSpeed="0.00" departDelay="-0.38" arrival="274.00" arrivalLane="0/0to1/0_0" arrivalPos="585.40" arrivalSpeed="13.21" duration="249.00" routeLength="2960.00" waitSteps="15" timeLoss="35.93" rerouteNo="0" devices="tripinfo_54" vType="DEFAULT_VEHTYPE" speedFactor="1.00" vaporized=""/>
    <tripinfo id="260" depart="122.00" departLane="0/1to1/1_0" departPos="5.10" departSpeed="0.00" departDelay="-0.20" arrival="275.00" arrivalLane="2/1to3/1_0" arrivalPos="583.90" arrivalSpeed="13.55" duration="153.00" routeLength="1778.80" waitSteps="11" timeLoss="24.00" rerouteNo="0" devices="tripinfo_260" vType="DEFAULT_VEHTYPE" speedFactor="1.00" vaporized=""/>
    <tripinfo id="481" depart="228.00" departLane="3/1to2/1_0" departPos="5.10" departSpeed="0.00" departDelay="1.93" arrival="275.00" arrivalLane="3/1to2/1_1" arrivalPos="583.90" arrivalSpeed="12.85" duration="47.00" routeLength="578.80" waitSteps="0" timeLoss="5.00" rerouteNo="0" devices="tripinfo_481" vType="DEFAULT_VEHTYPE" speedFactor="1.00" vaporized=""/>
    <tripinfo id="144" depart="67.00" departLane="1/2to2/2_0" departPos="5.10" departSpeed="0.00" departDelay="-0.68" arrival="276.00" arrivalLane="2/3to2/2_1" arrivalPos="583.90" arrivalSpeed="13.62" duration="209.00" routeLength="1767.06" waitSteps="63" timeLoss="81.47" rerouteNo="0" devices="tripinfo_144" vType="DEFAULT_VEHTYPE" speedFactor="1.00" vaporized=""/>
    <tripinfo id="70" depart="32.00" departLane="1/3to0/3_0" departPos="5.10" departSpeed="0.00" departDelay="-0.90" arrival="276.00" arrivalLane="0/0to1/0_0" arrivalPos="585.40" arrivalSpeed="13.33" duration="244.00" routeLength="2989.70" waitSteps="8" timeLoss="28.57" rerouteNo="0" devices="tripinfo_70" vType="DEFAULT_VEHTYPE" speedFactor="1.00" vaporized=""/>
    <tripinfo id="27" depart="12.00" departLane="0/1to0/2_0" departPos="5.10" departSpeed="0.00" departDelay="-0.69" arrival="276.00" arrivalLane="1/1to2/1_0" arrivalPos="583.90" arrivalSpeed="13.34" duration="264.00" routeLength="2367.06" waitSteps="67" timeLoss="92.74" rerouteNo="0" devices="tripinfo_27" vType="DEFAULT_VEHTYPE" speedFactor="1.00" vaporized=""/>