<?xml version="1.0" encoding="UTF-8"?>

<!-- generated on 04/19/18 00:24:08 by SUMO Version 0.31.0
<?xml version="1.0" encoding="UTF-8"?>

<configuration xmlns:xsi="http://www.w3.org/2001/XMLSchema-instance" xsi:noNamespaceSchemaLocation="http://sumo.dlr.de/xsd/sumoConfiguration.xsd">

    <input>
        <net-file value="..\test_environments\single_intersection_map\newnet.net.xml"/>
        <route-files value="..\test_environments\single_intersection_map\newnet.rou.xml"/>
    </input>

    <output>
        <tripinfo-output value="tripinfo.xml"/>
    </output>

    <time>
        <begin value="0"/>
        <end value="10000"/>
    </time>

    <processing>
        <time-to-teleport value="-1"/>
    </processing>

    <traci_server>
        <remote-port value="32949"/>
    </traci_server>

</configuration>
-->

<tripinfos xmlns:xsi="http://www.w3.org/2001/XMLSchema-instance" xsi:noNamespaceSchemaLocation="http://sumo.dlr.de/xsd/tripinfo_file.xsd">
    <tripinfo id="type11.0" depart="3.00" departLane="road3_0" departPos="5.60" departSpeed="0.00" departDelay="3.00" arrival="22.00" arrivalLane="-road2_0" arrivalPos="66.23" arrivalSpeed="12.26" duration="19.00" routeLength="172.92" waitSteps="0" timeLoss="6.31" rerouteNo="0" devices="tripinfo_type11.0" vType="CarB" speedFactor="1.00" vaporized=""/>
    <tripinfo id="type2.0" depart="0.00" departLane="road3_0" departPos="5.60" departSpeed="0.00" departDelay="0.00" arrival="28.00" arrivalLane="road1_0" arrivalPos="199.35" arrivalSpeed="13.53" duration="28.00" routeLength="310.49" waitSteps="0" timeLoss="5.13" rerouteNo="0" devices="tripinfo_type2.0" vType="CarB" speedFactor="1.00" vaporized=""/>
    <tripinfo id="type12.0" depart="7.00" departLane="road3_0" departPos="5.10" departSpeed="0.00" departDelay="7.00" arrival="28.00" arrivalLane="-road4_0" arrivalPos="55.50" arrivalSpeed="11.26" duration="21.00" routeLength="168.41" waitSteps="0" timeLoss="8.59" rerouteNo="0" devices="tripinfo_type12.0" vType="CarA" speedFactor="1.00" vaporized=""/>
    <tripinfo id="type5.0" depart="4.00" departLane="-road1_0" departPos="5.10" departSpeed="0.00" departDelay="4.00" arrival="29.00" arrivalLane="-road2_0" arrivalPos="66.23" arrivalSpeed="11.91" duration="25.00" routeLength="270.96" waitSteps="0" timeLoss="5.13" rerouteNo="0" devices="tripinfo_type5.0" vType="CarA" speedFactor="1.00" vaporized=""/>
    <tripinfo id="type1.0" depart="0.00" departLane="-road1_0" departPos="5.10" departSpeed="0.00" departDelay="0.00" arrival="30.00" arrivalLane="-road3_0" arrivalPos="107.12" arrivalSpeed="11.76" duration="30.00" routeLength="311.07" waitSteps="0" timeLoss="7.26" rerouteNo="0" devices="tripinfo_type1.0" vType="CarA" speedFactor="1.00" vaporized=""/>
    <tripinfo id="type6.0" depart="7.00" departLane="-road1_0" departPos="5.60" departSpeed="0.00" departDelay="7.00" arrival="32.00" arrivalLane="-road4_0" arrivalPos="55.50" arrivalSpeed="12.15" duration="25.00" routeLength="254.62" waitSteps="0" timeLoss="5.86" rerouteNo="0" devices="tripinfo_type6.0" vType="CarB" speedFactor="1.00" vaporized=""/>
    <tripinfo id="type11.1" depart="24.00" departLane="road3_0" departPos="5.60" departSpeed="0.00" departDelay="4.00" arrival="43.00" arrivalLane="-road2_0" arrivalPos="66.23" arrivalSpeed="12.42" duration="19.00" routeLength="172.92" waitSteps="0" timeLoss="6.46" rerouteNo="0" devices="tripinfo_type11.1" vType="CarB" speedFactor="1.00" vaporized=""/>
    <tripinfo id="type5.1" depart="22.00" departLane="-road1_0" departPos="5.10" departSpeed="0.00" departDelay="2.00" arrival="48.00" arrivalLane="-road2_0" arrivalPos="66.23" arrivalSpeed="13.58" duration="26.00" routeLength="270.96" waitSteps="0" timeLoss="5.64" rerouteNo="0" devices="tripinfo_type5.1" vType="CarA" speedFactor="1.00" vaporized=""/>
    <tripinfo id="type1.1" depart="20.00" departLane="-road1_0" departPos="5.10" departSpeed="0.00" departDelay="0.00" arrival="48.00" arrivalLane="-road3_0" arrivalPos="107.12" arrivalSpeed="13.14" duration="28.00" routeLength="311.07" waitSteps="0" timeLoss="4.70" rerouteNo="0" devices="tripinfo_type1.1" vType="CarA" speedFactor="1.00" vaporized=""/>
    <tripinfo id="type12.1" depart="28.00" departLane="road3_0" departPos="5.10" departSpeed="0.00" departDelay="8.00" arrival="48.00" arrivalLane="-road4_0" arrivalPos="55.50" arrivalSpeed="11.34" duration="20.00" routeLength="168.41" waitSteps="0" timeLoss="7.86" rerouteNo="0" devices="tripinfo_type12.1" vType="CarA" speedFactor="1.00" vaporized=""/>
    <tripinfo id="type2.1" depart="20.00" departLane="road3_0" departPos="5.60" departSpeed="0.00" departDelay="0.00" arrival="50.00" arrivalLane="road1_0" arrivalPos="199.35" arrivalSpeed="12.97" duration="30.00" routeLength="310.49" waitSteps="0" timeLoss="7.58" rerouteNo="0" devices="tripinfo_type2.1" vType="CarB" speedFactor="1.00" vaporized=""/>
    <tripinfo id="type6.1" depart="26.00" departLane="-road1_0" departPos="5.60" departSpeed="0.00" departDelay="6.00" arrival="52.00" arrivalLane="-road4_0" arrivalPos="55.50" arrivalSpeed="12.64" duration="26.00" routeLength="254.62" waitSteps="0" timeLoss="7.64" rerouteNo="0" devices="tripinfo_type6.1" vType="CarB" speedFactor="1.00" vaporized=""/>
    <tripinfo id="type11.2" depart="44.00" departLane="road3_0" departPos="5.60" departSpeed="0.00" departDelay="4.00" arrival="63.00" arrivalLane="-road2_0" arrivalPos="66.23" arrivalSpeed="13.02" duration="19.00" routeLength="172.92" waitSteps="0" timeLoss="5.89" rerouteNo="0" devices="tripinfo_type11.2" vType="CarB" speedFactor="1.00" vaporized=""/>
    <tripinfo id="type12.2" depart="49.00" departLane="road3_0" departPos="5.10" departSpeed="0.00" departDelay="9.00" arrival="67.00" arrivalLane="-road4_0" arrivalPos="55.50" arrivalSpeed="13.53" duration="18.00" routeLength="168.41" waitSteps="0" timeLoss="5.86" rerouteNo="0" devices="tripinfo_type12.2" vType="CarA" speedFactor="1.00" vaporized=""/>
    <tripinfo id="type1.2" depart="40.00" departLane="-road1_0" departPos="5.10" departSpeed="0.00" departDelay="0.00" arrival="69.00" arrivalLane="-road3_0" arrivalPos="107.12" arrivalSpeed="13.43" duration="29.00" routeLength="311.07" waitSteps="0" timeLoss="5.79" rerouteNo="0" devices="tripinfo_type1.2" vType="CarA" speedFactor="1.00" vaporized=""/>
    <tripinfo id="type2.2" depart="40.00" departLane="road3_0" departPos="5.60" departSpeed="0.00" departDelay="0.00" arrival="70.00" arrivalLane="road1_0" arrivalPos="199.35" arrivalSpeed="13.56" duration="30.00" routeLength="310.49" waitSteps="0" timeLoss="7.60" rerouteNo="0" devices="tripinfo_type2.2" vType="CarB" speedFactor="1.00" vaporized=""/>
    <tripinfo id="type5.2" depart="44.00" departLane="-road1_0" departPos="5.10" departSpeed="0.00" departDelay="4.00" arrival="71.00" arrivalLane="-road2_0" arrivalPos="66.23" arrivalSpeed="12.96" duration="27.00" routeLength="270.96" waitSteps="0" timeLoss="6.97" rerouteNo="0" devices="tripinfo_type5.2" vType="CarA" speedFactor="1.00" vaporized=""/>
    <tripinfo id="type6.2" depart="48.00" departLane="-road1_0" departPos="5.60" departSpeed="0.00" departDelay="8.00" arrival="74.00" arrivalLane="-road4_0" arrivalPos="55.50" arrivalSpeed="12.98" duration="26.00" routeLength="254.62" waitSteps="0" timeLoss="7.04" rerouteNo="0" devices="tripinfo_type6.2" vType="CarB" speedFactor="1.00" vaporized=""/>
    <tripinfo id="type11.3" depart="64.00" departLane="road3_0" departPos="5.60" departSpeed="0.00" departDelay="4.00" arrival="84.00" arrivalLane="-road2_0" arrivalPos="66.23" arrivalSpeed="13.00" duration="20.00" routeLength="172.92" waitSteps="0" timeLoss="7.04" rerouteNo="0" devices="tripinfo_type11.3" vType="CarB" speedFactor="1.00" vaporized=""/>
    <tripinfo id="type12.3" depart="67.00" departLane="road3_0" departPos="5.10" departSpeed="0.00" departDelay="7.00" arrival="88.00" arrivalLane="-road4_0" arrivalPos="55.50" arrivalSpeed="12.33" duration="21.00" routeLength="168.41" waitSteps="0" timeLoss="8.39" rerouteNo="0" devices="tripinfo_type12.3" vType="CarA" speedFactor="1.00" vaporized=""/>
    <tripinfo id="type1.3" depart="60.00" departLane="-road1_0" departPos="5.10" departSpeed="0.00" departDelay="0.00" arrival="89.00" arrivalLane="-road3_0" arrivalPos="107.12" arrivalSpeed="13.89" duration="29.00" routeLength="311.07" waitSteps="0" timeLoss="6.07" rerouteNo="0" devices="tripinfo_type1.3" vType="CarA" speedFactor="1.00" vaporized=""/>
    <tripinfo id="type5.3" depart="64.00" departLane="-road1_0" departPos="5.10" departSpeed="0.00" departDelay="4.00" arrival="89.00" arrivalLane="-road2_0" arrivalPos="66.23" arrivalSpeed="13.24" duration="25.00" routeLength="270.96" waitSteps="0" timeLoss="5.35" rerouteNo="0" devices="tripinfo_type5.3" vType="CarA" speedFactor="1.00" vaporized=""/>
    <tripinfo id="type2.3" depart="60.00" departLane="road3_0" departPos="5.60" departSpeed="0.00" departDelay="0.00" arrival="90.00" arrivalLane="road1_0" arrivalPos="199.35" arrivalSpeed="12.40" duration="30.00" routeLength="310.49" waitSteps="0" timeLoss="6.99" rerouteNo="0" devices="tripinfo_type2.3" vType="CarB" speedFactor="1.00" vaporized=""/>
    <tripinfo id="type6.3" depart="67.00" departLane="-road1_0" departPos="5.60" departSpeed="0.00" departDelay="7.00" arrival="92.00" arrivalLane="-road4_0" arrivalPos="55.50" arrivalSpeed="13.13" duration="25.00" routeLength="254.62" waitSteps="0" timeLoss="6.59" rerouteNo="0" devices="tripinfo_type6.3" vType="CarB" speedFactor="1.00" vaporized=""/>
    <tripinfo id="type11.4" depart="84.00" departLane="road3_0" departPos="5.60" departSpeed="0.00" departDelay="4.00" arrival="104.00" arrivalLane="-road2_0" arrivalPos="66.23" arrivalSpeed="12.80" duration="20.00" routeLength="172.92" waitSteps="1" timeLoss="7.04" rerouteNo="0" devices="tripinfo_type11.4" vType="CarB" speedFactor="1.00" vaporized=""/>
    <tripinfo id="type12.4" depart="88.00" departLane="road3_0" departPos="5.10" departSpeed="0.00" departDelay="8.00" arrival="106.00" arrivalLane="-road4_0" arrivalPos="55.50" arrivalSpeed="12.56" duration="18.00" routeLength="168.41" waitSteps="0" timeLoss="5.61" rerouteNo="0" devices="tripinfo_type12.4" vType="CarA" speedFactor="1.00" vaporized=""/>
    <tripinfo id="type1.4" depart="80.00" departLane="-road1_0" departPos="5.10" departSpeed="0.00" departDelay="0.00" arrival="108.00" arrivalLane="-road3_0" arrivalPos="107.12" arrivalSpeed="13.85" duration="28.00" routeLength="311.07" waitSteps="0" timeLoss="5.10" rerouteNo="0" devices="tripinfo_type1.4" vType="CarA" speedFactor="1.00" vaporized=""/>
    <tripinfo id="type5.4" depart="83.00" departLane="-road1_0" departPos="5.10" departSpeed="0.00" departDelay="3.00" arrival="108.00" arrivalLane="-road2_0" arrivalPos="66.23" arrivalSpeed="13.09" duration="25.00" routeLength="270.96" waitSteps="0" timeLoss="4.60" rerouteNo="0" devices="tripinfo_type5.4" vType="CarA" speedFactor="1.00" vaporized=""/>
    <tripinfo id="type2.4" depart="80.00" departLane="road3_0" departPos="5.60" departSpeed="0.00" departDelay="0.00" arrival="111.00" arrivalLane="road1_0" arrivalPos="199.35" arrivalSpeed="12.65" duration="31.00" routeLength="310.49" waitSteps="0" timeLoss="7.81" rerouteNo="0" devices="tripinfo_type2.4" vType="CarB" speedFactor="1.00" vaporized=""/>
    <tripinfo id="type4.0" depart="0.00" departLane="road2_0" departPos="5.10" departSpeed="0.00" departDelay="0.00" arrival="112.00" arrivalLane="-road4_0" arrivalPos="55.50" arrivalSpeed="11.20" duration="112.00" routeLength="127.19" waitSteps="90" timeLoss="102.10" rerouteNo="0" devices="tripinfo_type4.0" vType="CarA" speedFactor="1.00" vaporized=""/>
    <tripinfo id="type3.0" depart="0.00" departLane="road4_0" departPos="5.60" departSpeed="0.00" departDelay="0.00" arrival="113.00" arrivalLane="-road2_0" arrivalPos="66.23" arrivalSpeed="12.05" duration="113.00" routeLength="125.99" waitSteps="89" timeLoss="103.47" rerouteNo="0" devices="tripinfo_type3.0" vType="CarB" speedFactor="1.00" vaporized=""/>
    <tripinfo id="type9.0" depart="7.00" departLane="road4_0" departPos="5.10" departSpeed="0.00" departDelay="7.00" arrival="120.00" arrivalLane="-road3_0" arrivalPos="107.12" arrivalSpeed="11.49" duration="113.00" routeLength="162.78" waitSteps="86" timeLoss="100.94" rerouteNo="0" devices="tripinfo_type9.0" vType="CarA" speedFactor="1.00" vaporized=""/>
    <tripinfo id="type3.1" depart="20.00" departLane="road4_0" departPos="5.60" departSpeed="0.00" departDelay="0.00" arrival="120.00" arrivalLane="-road2_0" arrivalPos="66.23" arrivalSpeed="13.09" duration="100.00" routeLength="125.99" waitSteps="78" timeLoss="90.34" rerouteNo="0" devices="tripinfo_type3.1" vType="CarB" speedFactor="1.00" vaporized=""/>
    <tripinfo id="type7.0" depart="3.00" departLane="road2_0" departPos="5.60" departSpeed="0.00" departDelay="3.00" arrival="125.00" arrivalLane="road1_0" arrivalPos="199.35" arrivalSpeed="12.29" duration="122.00" routeLength="265.57" waitSteps="89" timeLoss="102.79" rerouteNo="0" devices="tripinfo_type7.0" vType="CarB" speedFactor="1.00" vaporized=""/>
    <tripinfo id="type3.2" depart="40.00" departLane="road4_0" departPos="5.60" departSpeed="0.00" departDelay="0.00" arrival="126.00" arrivalLane="-road2_0" arrivalPos="66.23" arrivalSpeed="12.35" duration="86.00" routeLength="125.99" waitSteps="65" timeLoss="76.67" rerouteNo="0" devices="tripinfo_type3.2" vType="CarB" speedFactor="1.00" vaporized=""/>
    <tripinfo id="type9.1" depart="27.00" departLane="road4_0" departPos="5.10" departSpeed="0.00" departDelay="7.00" arrival="127.00" arrivalLane="-road3_0" arrivalPos="107.12" arrivalSpeed="13.80" duration="100.00" routeLength="162.78" waitSteps="74" timeLoss="87.57" rerouteNo="0" devices="tripinfo_type9.1" vType="CarA" speedFactor="1.00" vaporized=""/>
    <tripinfo id="type8.0" depart="4.00" departLane="road4_0" departPos="5.10" departSpeed="0.00" departDelay="4.00" arrival="129.00" arrivalLane="road1_0" arrivalPos="199.35" arrivalSpeed="13.49" duration="125.00" routeLength="260.05" waitSteps="86" timeLoss="105.93" rerouteNo="0" devices="tripinfo_type8.0" vType="CarA" speedFactor="1.00" vaporized=""/>
    <tripinfo id="type8.1" depart="23.00" departLane="road4_0" departPos="5.10" departSpeed="0.00" departDelay="3.00" arrival="133.00" arrivalLane="road1_0" arrivalPos="199.35" arrivalSpeed="12.66" duration="110.00" routeLength="260.05" waitSteps="77" timeLoss="90.41" rerouteNo="0" devices="tripinfo_type8.1" vType="CarA" speedFactor="1.00" vaporized=""/>
    <tripinfo id="type9.2" depart="117.00" departLane="road4_0" departPos="5.10" departSpeed="0.00" departDelay="77.00" arrival="135.00" arrivalLane="-road3_0" arrivalPos="107.12" arrivalSpeed="11.69" duration="18.00" routeLength="162.78" waitSteps="0" timeLoss="5.64" rerouteNo="0" devices="tripinfo_type9.2" vType="CarA" speedFactor="1.00" vaporized=""/>
    <tripinfo id="type4.1" depart="20.00" departLane="road2_0" departPos="5.10" departSpeed="0.00" departDelay="0.00" arrival="137.00" arrivalLane="-road4_0" arrivalPos="55.50" arrivalSpeed="11.83" duration="117.00" routeLength="127.19" waitSteps="87" timeLoss="107.27" rerouteNo="0" devices="tripinfo_type4.1" vType="CarA" speedFactor="1.00" vaporized=""/>
    <tripinfo id="type3.3" depart="120.00" departLane="road4_0" departPos="5.60" departSpeed="0.00" departDelay="60.00" arrival="139.00" arrivalLane="-road2_0" arrivalPos="66.23" arrivalSpeed="13.70" duration="19.00" routeLength="125.99" waitSteps="0" timeLoss="9.15" rerouteNo="0" devices="tripinfo_type3.3" vType="CarB" speedFactor="1.00" vaporized=""/>
    <tripinfo id="type10.0" depart="7.00" departLane="road2_0" departPos="5.60" departSpeed="0.00" departDelay="7.00" arrival="140.00" arrivalLane="-road3_0" arrivalPos="107.12" arrivalSpeed="12.67" duration="133.00" routeLength="178.79" waitSteps="97" timeLoss="119.18" rerouteNo="0" devices="tripinfo_type10.0" vType="CarB" speedFactor="1.00" vaporized=""/>
    <tripinfo id="type8.2" depart="113.00" departLane="road4_0" departPos="5.10" departSpeed="0.00" departDelay="73.00" arrival="141.00" arrivalLane="road1_0" arrivalPos="199.35" arrivalSpeed="11.58" duration="28.00" routeLength="260.05" waitSteps="0" timeLoss="8.66" rerouteNo="0" devices="tripinfo_type8.2" vType="CarA" speedFactor="1.00" vaporized=""/>
    <tripinfo id="type9.3" depart="127.00" departLane="road4_0" departPos="5.10" departSpeed="0.00" departDelay="67.00" arrival="146.00" arrivalLane="-road3_0" arrivalPos="107.12" arrivalSpeed="12.57" duration="19.00" routeLength="162.78" waitSteps="0" timeLoss="6.78" rerouteNo="0" devices="tripinfo_type9.3" vType="CarA" speedFactor="1.00" vaporized=""/>
    <tripinfo id="type3.4" depart="131.00" departLane="road4_0" departPos="5.60" departSpeed="0.00" departDelay="51.00" arrival="146.00" arrivalLane="-road2_0" arrivalPos="66.23" arrivalSpeed="13.63" duration="15.00" routeLength="125.99" waitSteps="0" timeLoss="5.74" rerouteNo="0" devices="tripinfo_type3.4" vType="CarB" speedFactor="1.00" vaporized=""/>
    <tripinfo id="type7.1" depart="23.00" departLane="road2_0" departPos="5.60" departSpeed="0.00" departDelay="3.00" arrival="150.00" arrivalLane="road1_0" arrivalPos="199.35" arrivalSpeed="13.32" duration="127.00" routeLength="265.57" waitSteps="82" timeLoss="107.14" rerouteNo="0" devices="tripinfo_type7.1" vType="CarB" speedFactor="1.00" vaporized=""/>
    <tripinfo id="type4.2" depart="40.00" departLane="road2_0" departPos="5.10" departSpeed="0.00" departDelay="0.00" arrival="151.00" arrivalLane="-road4_0" arrivalPos="55.50" arrivalSpeed="12.40" duration="111.00" routeLength="127.19" waitSteps="71" timeLoss="101.44" rerouteNo="0" devices="tripinfo_type4.2" vType="CarA" speedFactor="1.00" vaporized=""/>
    <tripinfo id="type8.3" depart="123.00" departLane="road4_0" departPos="5.10" departSpeed="0.00" departDelay="63.00" arrival="154.00" arrivalLane="road1_0" arrivalPos="199.35" arrivalSpeed="13.50" duration="31.00" routeLength="260.05" waitSteps="0" timeLoss="11.46" rerouteNo="0" devices="tripinfo_type8.3" vType="CarA" speedFactor="1.00" vaporized=""/>
    <tripinfo id="type10.1" depart="27.00" departLane="road2_0" departPos="5.60" departSpeed="0.00" departDelay="7.00" arrival="155.00" arrivalLane="-road3_0" arrivalPos="107.12" arrivalSpeed="13.86" duration="128.00" routeLength="178.79" waitSteps="84" timeLoss="114.15" rerouteNo="0" devices="tripinfo_type10.1" vType="CarB" speedFactor="1.00" vaporized=""/>
    <tripinfo id="type3.5" depart="142.00" departLane="road4_0" departPos="5.60" departSpeed="0.00" departDelay="42.00" arrival="157.00" arrivalLane="-road2_0" arrivalPos="66.23" arrivalSpeed="13.34" duration="15.00" routeLength="125.99" waitSteps="0" timeLoss="5.69" rerouteNo="0" devices="tripinfo_type3.5" vType="CarB" speedFactor="1.00" vaporized=""/>
    <tripinfo id="type9.4" depart="139.00" departLane="road4_0" departPos="5.10" departSpeed="0.00" departDelay="59.00" arrival="158.00" arrivalLane="-road3_0" arrivalPos="107.12" arrivalSpeed="11.49" duration="19.00" routeLength="162.78" waitSteps="0" timeLoss="6.90" rerouteNo="0" devices="tripinfo_type9.4" vType="CarA" speedFactor="1.00" vaporized=""/>
    <tripinfo id="type4.3" depart="119.00" departLane="road2_0" departPos="5.10" departSpeed="0.00" departDelay="59.00" arrival="160.00" arrivalLane="-road4_0" arrivalPos="55.50" arrivalSpeed="12.17" duration="41.00" routeLength="127.19" waitSteps="5" timeLoss="31.46" rerouteNo="0" devices="tripinfo_type4.3" vType="CarA" speedFactor="1.00" vaporized=""/>
    <tripinfo id="type10.2" depart="114.00" departLane="road2_0" departPos="5.60" departSpeed="0.00" departDelay="74.00" arrival="162.00" arrivalLane="-road3_0" arrivalPos="107.12" arrivalSpeed="13.02" duration="48.00" routeLength="178.79" waitSteps="7" timeLoss="34.74" rerouteNo="0" devices="tripinfo_type10.2" vType="CarB" speedFactor="1.00" vaporized=""/>
    <tripinfo id="type7.2" depart="44.00" departLane="road2_0" departPos="5.60" departSpeed="0.00" departDelay="4.00" arrival="167.00" arrivalLane="road1_0" arrivalPos="199.35" arrivalSpeed="12.51" duration="123.00" routeLength="265.57" waitSteps="71" timeLoss="103.07" rerouteNo="0" devices="tripinfo_type7.2" vType="CarB" speedFactor="1.00" vaporized=""/>
    <tripinfo id="type8.4" depart="135.00" departLane="road4_0" departPos="5.10" departSpeed="0.00" departDelay="55.00" arrival="169.00" arrivalLane="road1_0" arrivalPos="199.35" arrivalSpeed="13.73" duration="34.00" routeLength="260.05" waitSteps="3" timeLoss="15.19" rerouteNo="0" devices="tripinfo_type8.4" vType="CarA" speedFactor="1.00" vaporized=""/>
    <tripinfo id="type3.6" depart="152.00" departLane="road4_0" departPos="5.60" departSpeed="0.00" departDelay="32.00" arrival="169.00" arrivalLane="-road2_0" arrivalPos="66.23" arrivalSpeed="12.33" duration="17.00" routeLength="125.99" waitSteps="0" timeLoss="7.60" rerouteNo="0" devices="tripinfo_type3.6" vType="CarB" speedFactor="1.00" vaporized=""/>
    <tripinfo id="type9.5" depart="149.00" departLane="road4_0" departPos="5.10" departSpeed="0.00" departDelay="49.00" arrival="171.00" arrivalLane="-road3_0" arrivalPos="107.12" arrivalSpeed="12.68" duration="22.00" routeLength="162.78" waitSteps="0" timeLoss="9.63" rerouteNo="0" devices="tripinfo_type9.5" vType="CarA" speedFactor="1.00" vaporized=""/>
    <tripinfo id="type7.3" depart="125.00" departLane="road2_0" departPos="5.60" departSpeed="0.00" departDelay="65.00" arrival="174.00" arrivalLane="road1_0" arrivalPos="199.35" arrivalSpeed="12.38" duration="49.00" routeLength="265.57" waitSteps="2" timeLoss="29.19" rerouteNo="0" devices="tripinfo_type7.3" vType="CarB" speedFactor="1.00" vaporized=""/>
    <tripinfo id="type4.4" depart="143.00" departLane="road2_0" departPos="5.10" departSpeed="0.00" departDelay="63.00" arrival="174.00" arrivalLane="-road4_0" arrivalPos="55.50" arrivalSpeed="11.42" duration="31.00" routeLength="127.19" waitSteps="2" timeLoss="21.40" rerouteNo="0" devices="tripinfo_type4.4" vType="CarA" speedFactor="1.00" vaporized=""/>
    <tripinfo id="type8.5" depart="146.00" departLane="road4_0" departPos="5.10" departSpeed="0.00" departDelay="46.00" arrival="177.00" arrivalLane="road1_0" arrivalPos="199.35" arrivalSpeed="13.69" duration="31.00" routeLength="260.05" waitSteps="1" timeLoss="11.72" rerouteNo="0" devices="tripinfo_type8.5" vType="CarA" speedFactor="1.00" vaporized=""/>
    <tripinfo id="type10.3" depart="139.00" departLane="road2_0" departPos="5.60" departSpeed="0.00" departDelay="79.00" arrival="178.00" arrivalLane="-road3_0" arrivalPos="107.12" arrivalSpeed="13.43" duration="39.00" routeLength="178.79" waitSteps="1" timeLoss="25.22" rerouteNo="0" devices="tripinfo_type10.3" vType="CarB" speedFactor="1.00" vaporized=""/>
    <tripinfo id="type3.7" depart="163.00" departLane="road4_0" departPos="5.60" departSpeed="0.00" departDelay="23.00" arrival="179.00" arrivalLane="-road2_0" arrivalPos="66.23" arrivalSpeed="12.77" duration="16.00" routeLength="125.99" waitSteps="0" timeLoss="6.35" rerouteNo="0" devices="tripinfo_type3.7" vType="CarB" speedFactor="1.00" vaporized=""/>
    <tripinfo id="type9.6" depart="159.00" departLane="road4_0" departPos="5.10" departSpeed="0.00" departDelay="39.00" arrival="180.00" arrivalLane="-road3_0" arrivalPos="107.12" arrivalSpeed="12.47" duration="21.00" routeLength="162.78" waitSteps="0" timeLoss="8.94" rerouteNo="0" devices="tripinfo_type9.6" vType="CarA" speedFactor="1.00" vaporized=""/>
    <tripinfo id="type4.5" depart="159.00" departLane="road2_0" departPos="5.10" departSpeed="0.00" departDelay="59.00" arrival="181.00" arrivalLane="-road4_0" arrivalPos="55.50" arrivalSpeed="13.72" duration="22.00" routeLength="127.19" waitSteps="0" timeLoss="12.82" rerouteNo="0" devices="tripinfo_type4.5" vType="CarA" speedFactor="1.00" vaporized=""/>
    <tripinfo id="type10.4" depart="155.00" departLane="road2_0" departPos="5.60" departSpeed="0.00" departDelay="75.00" arrival="184.00" arrivalLane="-road3_0" arrivalPos="107.12" arrivalSpeed="13.69" duration="29.00" routeLength="178.79" waitSteps="0" timeLoss="15.73" rerouteNo="0" devices="tripinfo_type10.4" vType="CarB" speedFactor="1.00" vaporized=""/>
    <tripinfo id="type7.4" depart="149.00" departLane="road2_0" departPos="5.60" departSpeed="0.00" departDelay="69.00" arrival="188.00" arrivalLane="road1_0" arrivalPos="199.35" arrivalSpeed="12.93" duration="39.00" routeLength="265.57" waitSteps="1" timeLoss="19.08" rerouteNo="0" devices="tripinfo_type7.4" vType="CarB" speedFactor="1.00" vaporized=""/>
    <tripinfo id="type9.7" depart="170.00" departLane="road4_0" departPos="5.10" departSpeed="0.00" departDelay="30.00" arrival="188.00" arrivalLane="-road3_0" arrivalPos="107.12" arrivalSpeed="13.81" duration="18.00" routeLength="162.78" waitSteps="0" timeLoss="5.67" rerouteNo="0" devices="tripinfo_type9.7" vType="CarA" speedFactor="1.00" vaporized=""/>
    <tripinfo id="type4.6" depart="172.00" departLane="road2_0" departPos="5.10" departSpeed="0.00" departDelay="52.00" arrival="189.00" arrivalLane="-road4_0" arrivalPos="55.50" arrivalSpeed="13.26" duration="17.00" routeLength="127.19" waitSteps="0" timeLoss="7.49" rerouteNo="0" devices="tripinfo_type4.6" vType="CarA" speedFactor="1.00" vaporized=""/>
    <tripinfo id="type8.6" depart="155.00" departLane="road4_0" departPos="5.10" departSpeed="0.00" departDelay="35.00" arrival="191.00" arrivalLane="road1_0" arrivalPos="199.35" arrivalSpeed="12.22" duration="36.00" routeLength="260.05" waitSteps="6" timeLoss="16.97" rerouteNo="0" devices="tripinfo_type8.6" vType="CarA" speedFactor="1.00" vaporized=""/>
    <tripinfo id="type3.8" depart="175.00" departLane="road4_0" departPos="5.60" departSpeed="0.00" departDelay="15.00" arrival="191.00" arrivalLane="-road2_0" arrivalPos="66.23" arrivalSpeed="13.35" duration="16.00" routeLength="125.99" waitSteps="0" timeLoss="6.11" rerouteNo="0" devices="tripinfo_type3.8" vType="CarB" speedFactor="1.00" vaporized=""/>
    <tripinfo id="type10.5" depart="167.00" departLane="road2_0" departPos="5.60" departSpeed="0.00" departDelay="67.00" arrival="192.00" arrivalLane="-road3_0" arrivalPos="107.12" arrivalSpeed="13.34" duration="25.00" routeLength="178.79" waitSteps="0" timeLoss="11.41" rerouteNo="0" devices="tripinfo_type10.5" vType="CarB" speedFactor="1.00" vaporized=""/>
    <tripinfo id="type7.5" depart="163.00" departLane="road2_0" departPos="5.60" departSpeed="0.00" departDelay="63.00" arrival="195.00" arrivalLane="road1_0" arrivalPos="199.35" arrivalSpeed="13.67" duration="32.00" routeLength="265.57" waitSteps="0" timeLoss="12.21" rerouteNo="0" devices="tripinfo_type7.5" vType="CarB" speedFactor="1.00" vaporized=""/>
    <tripinfo id="type8.7" depart="167.00" departLane="road4_0" departPos="5.10" departSpeed="0.00" departDelay="27.00" arrival="199.00" arrivalLane="road1_0" arrivalPos="199.35" arrivalSpeed="13.32" duration="32.00" routeLength="260.05" waitSteps="3" timeLoss="13.06" rerouteNo="0" devices="tripinfo_type8.7" vType="CarA" speedFactor="1.00" vaporized=""/>
    <tripinfo id="type9.8" depart="183.00" departLane="road4_0" departPos="5.10" departSpeed="0.00" departDelay="23.00" arrival="201.00" arrivalLane="-road3_0" arrivalPos="107.12" arrivalSpeed="13.41" duration="18.00" routeLength="162.78" waitSteps="0" timeLoss="6.03" rerouteNo="0" devices="tripinfo_type9.8" vType="CarA" speedFactor="1.00" vaporized=""/>
    <tripinfo id="type7.6" depart="175.00" departLane="road2_0" departPos="5.60" departSpeed="0.00" departDelay="55.00" arrival="203.00" arrivalLane="road1_0" arrivalPos="199.35" arrivalSpeed="13.22" duration="28.00" routeLength="265.57" waitSteps="0" timeLoss="8.67" rerouteNo="0" devices="tripinfo_type7.6" vType="CarB" speedFactor="1.00" vaporized=""/>
    <tripinfo id="type4.7" depart="184.00" departLane="road2_0" departPos="5.10" departSpeed="0.00" departDelay="44.00" arrival="203.00" arrivalLane="-road4_0" arrivalPos="55.50" arrivalSpeed="11.99" duration="19.00" routeLength="127.19" waitSteps="0" timeLoss="9.15" rerouteNo="0" devices="tripinfo_type4.7" vType="CarA" speedFactor="1.00" vaporized=""/>
    <tripinfo id="type3.9" depart="187.00" departLane="road4_0" departPos="5.60" departSpeed="0.00" departDelay="7.00" arrival="205.00" arrivalLane="-road2_0" arrivalPos="66.23" arrivalSpeed="13.80" duration="18.00" routeLength="125.99" waitSteps="0" timeLoss="8.61" rerouteNo="0" devices="tripinfo_type3.9" vType="CarB" speedFactor="1.00" vaporized=""/>
    <tripinfo id="type8.8" depart="179.00" departLane="road4_0" departPos="5.10" departSpeed="0.00" departDelay="19.00" arrival="206.00" arrivalLane="road1_0" arrivalPos="199.35" arrivalSpeed="12.65" duration="27.00" routeLength="260.05" waitSteps="0" timeLoss="7.77" rerouteNo="0" devices="tripinfo_type8.8" vType="CarA" speedFactor="1.00" vaporized=""/>
    <tripinfo id="type10.6" depart="180.00" departLane="road2_0" departPos="5.60" departSpeed="0.00" departDelay="60.00" arrival="209.00" arrivalLane="-road3_0" arrivalPos="107.12" arrivalSpeed="13.77" duration="29.00" routeLength="178.79" waitSteps="1" timeLoss="16.02" rerouteNo="0" devices="tripinfo_type10.6" vType="CarB" speedFactor="1.00" vaporized=""/>
    <tripinfo id="type7.7" depart="187.00" departLane="road2_0" departPos="5.60" departSpeed="0.00" departDelay="47.00" arrival="214.00" arrivalLane="road1_0" arrivalPos="199.35" arrivalSpeed="13.59" duration="27.00" routeLength="265.57" waitSteps="0" timeLoss="7.09" rerouteNo="0" devices="tripinfo_type7.7" vType="CarB" speedFactor="1.00" vaporized=""/>
    <tripinfo id="type10.7" depart="191.00" departLane="road2_0" departPos="5.60" departSpeed="0.00" departDelay="51.00" arrival="214.00" arrivalLane="-road3_0" arrivalPos="107.12" arrivalSpeed="13.66" duration="23.00" routeLength="178.79" waitSteps="0" timeLoss="9.33" rerouteNo="0" devices="tripinfo_type10.7" vType="CarB" speedFactor="1.00" vaporized=""/>