<?xml version="1.0" encoding="UTF-8"?>

<!-- generated on 5/4/2018 12:01:41 AM by SUMO gui Version 0.32.0
<?xml version="1.0" encoding="UTF-8"?>

<configuration xmlns:xsi="http://www.w3.org/2001/XMLSchema-instance" xsi:noNamespaceSchemaLocation="http://sumo.dlr.de/xsd/sumoConfiguration.xsd">

    <input>
        <net-file value="..\test_environments\single_intersection_random_trips\newnet.net.xml"/>
        <route-files value="..\test_environments\single_intersection_random_trips\newnet.rou.xml"/>
    </input>

    <output>
        <tripinfo-output value="tripinfo.xml"/>
    </output>

    <time>
        <begin value="0"/>
        <end value="10000"/>
    </time>

    <processing>
        <time-to-teleport value="-1"/>
    </processing>

    <traci_server>
        <remote-port value="51795"/>
    </traci_server>

</configuration>
-->

<tripinfos xmlns:xsi="http://www.w3.org/2001/XMLSchema-instance" xsi:noNamespaceSchemaLocation="http://sumo.dlr.de/xsd/tripinfo_file.xsd">
    <tripinfo id="11" depart="13.00" departLane="road4_0" departPos="5.10" departSpeed="0.00" departDelay="-0.20" arrival="46.00" arrivalLane="-road3_0" arrivalPos="195.25" arrivalSpeed="13.19" duration="33.00" routeLength="390.40" waitSteps="0" timeLoss="4.56" rerouteNo="0" devices="tripinfo_11" vType="DEFAULT_VEHTYPE" speedFactor="1.00" vaporized=""/>
    <tripinfo id="12" depart="16.00" departLane="road4_0" departPos="5.10" departSpeed="0.00" departDelay="1.60" arrival="49.00" arrivalLane="-road2_0" arrivalPos="195.25" arrivalSpeed="12.82" duration="33.00" routeLength="394.90" waitSteps="0" timeLoss="4.37" rerouteNo="0" devices="tripinfo_12" vType="DEFAULT_VEHTYPE" speedFactor="1.00" vaporized=""/>
    <tripinfo id="13" depart="15.00" departLane="road2_0" departPos="5.10" departSpeed="0.00" departDelay="-0.60" arrival="51.00" arrivalLane="-road3_0" arrivalPos="195.25" arrivalSpeed="12.63" duration="36.00" routeLength="395.72" waitSteps="0" timeLoss="7.35" rerouteNo="0" devices="tripinfo_13" vType="DEFAULT_VEHTYPE" speedFactor="1.00" vaporized=""/>
    <tripinfo id="18" depart="21.00" departLane="road4_0" departPos="5.10" departSpeed="0.00" departDelay="-0.60" arrival="54.00" arrivalLane="-road3_0" arrivalPos="195.25" arrivalSpeed="13.32" duration="33.00" routeLength="390.40" waitSteps="0" timeLoss="4.33" rerouteNo="0" devices="tripinfo_18" vType="DEFAULT_VEHTYPE" speedFactor="1.00" vaporized=""/>
    <tripinfo id="21" depart="25.00" departLane="road2_0" departPos="5.10" departSpeed="0.00" departDelay="-0.20" arrival="58.00" arrivalLane="-road4_0" arrivalPos="195.25" arrivalSpeed="13.02" duration="33.00" routeLength="394.90" waitSteps="0" timeLoss="4.42" rerouteNo="0" devices="tripinfo_21" vType="DEFAULT_VEHTYPE" speedFactor="1.00" vaporized=""/>
    <tripinfo id="1" depart="1.00" departLane="road3_0" departPos="5.10" departSpeed="0.00" departDelay="-0.20" arrival="69.00" arrivalLane="road1_0" arrivalPos="195.25" arrivalSpeed="13.05" duration="68.00" routeLength="394.90" waitSteps="29" timeLoss="39.00" rerouteNo="0" devices="tripinfo_1" vType="DEFAULT_VEHTYPE" speedFactor="1.00" vaporized=""/>
    <tripinfo id="5" depart="6.00" departLane="-road1_0" departPos="5.10" departSpeed="0.00" departDelay="0.00" arrival="72.00" arrivalLane="-road2_0" arrivalPos="195.25" arrivalSpeed="13.29" duration="66.00" routeLength="395.72" waitSteps="24" timeLoss="36.56" rerouteNo="0" devices="tripinfo_5" vType="DEFAULT_VEHTYPE" speedFactor="1.00" vaporized=""/>
    <tripinfo id="6" depart="9.00" departLane="-road1_0" departPos="5.10" departSpeed="0.00" departDelay="1.80" arrival="72.00" arrivalLane="-road3_0" arrivalPos="195.25" arrivalSpeed="13.64" duration="63.00" routeLength="394.90" waitSteps="22" timeLoss="34.13" rerouteNo="0" devices="tripinfo_6" vType="DEFAULT_VEHTYPE" speedFactor="1.00" vaporized=""/>
    <tripinfo id="10" depart="12.00" departLane="-road1_0" departPos="5.10" departSpeed="0.00" departDelay="0.00" arrival="78.00" arrivalLane="-road2_0" arrivalPos="195.25" arrivalSpeed="12.99" duration="66.00" routeLength="395.72" waitSteps="22" timeLoss="37.08" rerouteNo="0" devices="tripinfo_10" vType="DEFAULT_VEHTYPE" speedFactor="1.00" vaporized=""/>
    <tripinfo id="19" depart="22.00" departLane="-road1_0" departPos="5.10" departSpeed="0.00" departDelay="-0.80" arrival="79.00" arrivalLane="-road4_0" arrivalPos="195.25" arrivalSpeed="13.27" duration="57.00" routeLength="390.40" waitSteps="12" timeLoss="28.09" rerouteNo="0" devices="tripinfo_19" vType="DEFAULT_VEHTYPE" speedFactor="1.00" vaporized=""/>
    <tripinfo id="25" depart="30.00" departLane="-road1_0" departPos="5.10" departSpeed="0.00" departDelay="0.00" arrival="81.00" arrivalLane="-road4_0" arrivalPos="195.25" arrivalSpeed="13.33" duration="51.00" routeLength="390.40" waitSteps="6" timeLoss="22.14" rerouteNo="0" devices="tripinfo_25" vType="DEFAULT_VEHTYPE" speedFactor="1.00" vaporized=""/>
    <tripinfo id="31" depart="37.00" departLane="-road1_0" departPos="5.10" departSpeed="0.00" departDelay="-0.20" arrival="82.00" arrivalLane="-road4_0" arrivalPos="195.25" arrivalSpeed="13.08" duration="45.00" routeLength="390.40" waitSteps="2" timeLoss="16.86" rerouteNo="0" devices="tripinfo_31" vType="DEFAULT_VEHTYPE" speedFactor="1.00" vaporized=""/>
    <tripinfo id="38" depart="45.00" departLane="-road1_0" departPos="5.10" departSpeed="0.00" departDelay="-0.60" arrival="86.00" arrivalLane="-road2_0" arrivalPos="195.25" arrivalSpeed="12.84" duration="41.00" routeLength="395.72" waitSteps="0" timeLoss="11.81" rerouteNo="0" devices="tripinfo_38" vType="DEFAULT_VEHTYPE" speedFactor="1.00" vaporized=""/>
    <tripinfo id="42" depart="50.00" departLane="-road1_0" departPos="5.10" departSpeed="0.00" departDelay="-0.40" arrival="87.00" arrivalLane="-road3_0" arrivalPos="195.25" arrivalSpeed="13.07" duration="37.00" routeLength="394.90" waitSteps="0" timeLoss="8.11" rerouteNo="0" devices="tripinfo_42" vType="DEFAULT_VEHTYPE" speedFactor="1.00" vaporized=""/>
    <tripinfo id="4" depart="4.00" departLane="road3_0" departPos="5.10" departSpeed="0.00" departDelay="-0.80" arrival="91.00" arrivalLane="-road4_0" arrivalPos="195.25" arrivalSpeed="13.65" duration="87.00" routeLength="395.72" waitSteps="42" timeLoss="57.54" rerouteNo="0" devices="tripinfo_4" vType="DEFAULT_VEHTYPE" speedFactor="1.00" vaporized=""/>
    <tripinfo id="7" depart="8.00" departLane="road3_0" departPos="5.10" departSpeed="0.00" departDelay="-0.40" arrival="92.00" arrivalLane="road1_0" arrivalPos="195.25" arrivalSpeed="13.12" duration="84.00" routeLength="394.90" waitSteps="39" timeLoss="55.30" rerouteNo="0" devices="tripinfo_7" vType="DEFAULT_VEHTYPE" speedFactor="1.00" vaporized=""/>
    <tripinfo id="8" depart="11.00" departLane="road3_0" departPos="5.10" departSpeed="0.00" departDelay="1.40" arrival="94.00" arrivalLane="-road2_0" arrivalPos="195.25" arrivalSpeed="13.52" duration="83.00" routeLength="390.40" waitSteps="36" timeLoss="54.20" rerouteNo="0" devices="tripinfo_8" vType="DEFAULT_VEHTYPE" speedFactor="1.00" vaporized=""/>
    <tripinfo id="9" depart="14.00" departLane="road3_0" departPos="5.10" departSpeed="0.00" departDelay="3.20" arrival="96.00" arrivalLane="road1_0" arrivalPos="195.25" arrivalSpeed="13.59" duration="82.00" routeLength="394.90" waitSteps="34" timeLoss="52.90" rerouteNo="0" devices="tripinfo_9" vType="DEFAULT_VEHTYPE" speedFactor="1.00" vaporized=""/>
    <tripinfo id="14" depart="17.00" departLane="road3_0" departPos="5.10" departSpeed="0.00" departDelay="0.20" arrival="99.00" arrivalLane="-road4_0" arrivalPos="195.25" arrivalSpeed="13.21" duration="82.00" routeLength="395.72" waitSteps="32" timeLoss="52.76" rerouteNo="0" devices="tripinfo_14" vType="DEFAULT_VEHTYPE" speedFactor="1.00" vaporized=""/>
    <tripinfo id="15" depart="20.00" departLane="road3_0" departPos="5.10" departSpeed="0.00" departDelay="2.00" arrival="100.00" arrivalLane="road1_0" arrivalPos="195.25" arrivalSpeed="13.77" duration="80.00" routeLength="394.90" waitSteps="30" timeLoss="51.19" rerouteNo="0" devices="tripinfo_15" vType="DEFAULT_VEHTYPE" speedFactor="1.00" vaporized=""/>
    <tripinfo id="59" depart="70.00" departLane="-road1_0" departPos="5.10" departSpeed="0.00" departDelay="-0.80" arrival="104.00" arrivalLane="-road3_0" arrivalPos="195.25" arrivalSpeed="13.29" duration="34.00" routeLength="394.90" waitSteps="0" timeLoss="4.82" rerouteNo="0" devices="tripinfo_59" vType="DEFAULT_VEHTYPE" speedFactor="1.00" vaporized=""/>
    <tripinfo id="63" depart="75.00" departLane="-road1_0" departPos="5.10" departSpeed="0.00" departDelay="-0.60" arrival="108.00" arrivalLane="-road4_0" arrivalPos="195.25" arrivalSpeed="13.74" duration="33.00" routeLength="390.40" waitSteps="0" timeLoss="4.01" rerouteNo="0" devices="tripinfo_63" vType="DEFAULT_VEHTYPE" speedFactor="1.00" vaporized=""/>
    <tripinfo id="16" depart="23.00" departLane="road3_0" departPos="5.10" departSpeed="0.00" departDelay="3.80" arrival="111.00" arrivalLane="-road4_0" arrivalPos="195.25" arrivalSpeed="13.42" duration="88.00" routeLength="395.72" waitSteps="35" timeLoss="59.44" rerouteNo="0" devices="tripinfo_16" vType="DEFAULT_VEHTYPE" speedFactor="1.00" vaporized=""/>
    <tripinfo id="24" depart="28.00" departLane="road3_0" departPos="5.10" departSpeed="0.00" departDelay="-0.80" arrival="112.00" arrivalLane="-road2_0" arrivalPos="195.25" arrivalSpeed="13.71" duration="84.00" routeLength="390.40" waitSteps="29" timeLoss="55.70" rerouteNo="0" devices="tripinfo_24" vType="DEFAULT_VEHTYPE" speedFactor="1.00" vaporized=""/>
    <tripinfo id="26" depart="31.00" departLane="road3_0" departPos="5.10" departSpeed="0.00" departDelay="-0.20" arrival="114.00" arrivalLane="road1_0" arrivalPos="195.25" arrivalSpeed="13.40" duration="83.00" routeLength="394.90" waitSteps="26" timeLoss="54.37" rerouteNo="0" devices="tripinfo_26" vType="DEFAULT_VEHTYPE" speedFactor="1.00" vaporized=""/>
    <tripinfo id="27" depart="34.00" departLane="road3_0" departPos="5.10" departSpeed="0.00" departDelay="1.60" arrival="117.00" arrivalLane="-road4_0" arrivalPos="195.25" arrivalSpeed="13.63" duration="83.00" routeLength="395.72" waitSteps="23" timeLoss="53.61" rerouteNo="0" devices="tripinfo_27" vType="DEFAULT_VEHTYPE" speedFactor="1.00" vaporized=""/>
    <tripinfo id="32" depart="38.00" departLane="road4_0" departPos="5.10" departSpeed="0.00" departDelay="-0.40" arrival="119.00" arrivalLane="road1_0" arrivalPos="195.25" arrivalSpeed="13.22" duration="81.00" routeLength="395.72" waitSteps="43" timeLoss="51.90" rerouteNo="0" devices="tripinfo_32" vType="DEFAULT_VEHTYPE" speedFactor="1.00" vaporized=""/>
    <tripinfo id="30" depart="36.00" departLane="road2_0" departPos="5.10" departSpeed="0.00" departDelay="0.00" arrival="119.00" arrivalLane="-road3_0" arrivalPos="195.25" arrivalSpeed="13.21" duration="83.00" routeLength="395.72" waitSteps="44" timeLoss="53.91" rerouteNo="0" devices="tripinfo_30" vType="DEFAULT_VEHTYPE" speedFactor="1.00" vaporized=""/>
    <tripinfo id="33" depart="41.00" departLane="road4_0" departPos="5.10" departSpeed="0.00" departDelay="1.40" arrival="121.00" arrivalLane="road1_0" arrivalPos="195.25" arrivalSpeed="13.49" duration="80.00" routeLength="395.72" waitSteps="40" timeLoss="50.65" rerouteNo="0" devices="tripinfo_33" vType="DEFAULT_VEHTYPE" speedFactor="1.00" vaporized=""/>
    <tripinfo id="37" depart="44.00" departLane="road4_0" departPos="5.10" departSpeed="0.00" departDelay="-0.40" arrival="122.00" arrivalLane="-road3_0" arrivalPos="195.25" arrivalSpeed="13.47" duration="78.00" routeLength="390.40" waitSteps="38" timeLoss="49.08" rerouteNo="0" devices="tripinfo_37" vType="DEFAULT_VEHTYPE" speedFactor="1.00" vaporized=""/>
    <tripinfo id="43" depart="51.00" departLane="road4_0" departPos="5.10" departSpeed="0.00" departDelay="-0.60" arrival="124.00" arrivalLane="-road3_0" arrivalPos="195.25" arrivalSpeed="13.39" duration="73.00" routeLength="390.40" waitSteps="35" timeLoss="43.97" rerouteNo="0" devices="tripinfo_43" vType="DEFAULT_VEHTYPE" speedFactor="1.00" vaporized=""/>
    <tripinfo id="47" depart="56.00" departLane="road4_0" departPos="5.10" departSpeed="0.00" departDelay="-0.40" arrival="126.00" arrivalLane="-road2_0" arrivalPos="195.25" arrivalSpeed="13.59" duration="70.00" routeLength="394.90" waitSteps="31" timeLoss="41.03" rerouteNo="0" devices="tripinfo_47" vType="DEFAULT_VEHTYPE" speedFactor="1.00" vaporized=""/>
    <tripinfo id="35" depart="42.00" departLane="road2_0" departPos="5.10" departSpeed="0.00" departDelay="0.00" arrival="129.00" arrivalLane="-road3_0" arrivalPos="195.25" arrivalSpeed="12.60" duration="87.00" routeLength="395.72" waitSteps="44" timeLoss="58.20" rerouteNo="0" devices="tripinfo_35" vType="DEFAULT_VEHTYPE" speedFactor="1.00" vaporized=""/>
    <tripinfo id="39" depart="46.00" departLane="road2_0" departPos="5.10" departSpeed="0.00" departDelay="-0.80" arrival="131.00" arrivalLane="road1_0" arrivalPos="195.25" arrivalSpeed="12.69" duration="85.00" routeLength="390.40" waitSteps="40" timeLoss="56.23" rerouteNo="0" devices="tripinfo_39" vType="DEFAULT_VEHTYPE" speedFactor="1.00" vaporized=""/>
    <tripinfo id="40" depart="49.00" departLane="road2_0" departPos="5.10" departSpeed="0.00" departDelay="1.00" arrival="133.00" arrivalLane="road1_0" arrivalPos="195.25" arrivalSpeed="12.80" duration="84.00" routeLength="390.40" waitSteps="36" timeLoss="55.10" rerouteNo="0" devices="tripinfo_40" vType="DEFAULT_VEHTYPE" speedFactor="1.00" vaporized=""/>
    <tripinfo id="44" depart="52.00" departLane="road2_0" departPos="5.10" departSpeed="0.00" departDelay="-0.80" arrival="134.00" arrivalLane="road1_0" arrivalPos="195.25" arrivalSpeed="13.74" duration="82.00" routeLength="390.40" waitSteps="33" timeLoss="53.68" rerouteNo="0" devices="tripinfo_44" vType="DEFAULT_VEHTYPE" speedFactor="1.00" vaporized=""/>
    <tripinfo id="52" depart="62.00" departLane="road2_0" departPos="5.10" departSpeed="0.00" departDelay="-0.40" arrival="138.00" arrivalLane="-road3_0" arrivalPos="195.25" arrivalSpeed="13.57" duration="76.00" routeLength="395.72" waitSteps="27" timeLoss="46.81" rerouteNo="0" devices="tripinfo_52" vType="DEFAULT_VEHTYPE" speedFactor="1.00" vaporized=""/>
    <tripinfo id="54" depart="65.00" departLane="road2_0" departPos="5.10" departSpeed="0.00" departDelay="0.20" arrival="139.00" arrivalLane="-road4_0" arrivalPos="195.25" arrivalSpeed="12.96" duration="74.00" routeLength="394.90" waitSteps="24" timeLoss="45.33" rerouteNo="0" devices="tripinfo_54" vType="DEFAULT_VEHTYPE" speedFactor="1.00" vaporized=""/>
    <tripinfo id="56" depart="68.00" departLane="road2_0" departPos="5.10" departSpeed="0.00" departDelay="0.80" arrival="141.00" arrivalLane="road1_0" arrivalPos="195.25" arrivalSpeed="13.62" duration="73.00" routeLength="390.40" waitSteps="23" timeLoss="44.03" rerouteNo="0" devices="tripinfo_56" vType="DEFAULT_VEHTYPE" speedFactor="1.00" vaporized=""/>
    <tripinfo id="57" depart="71.00" departLane="road2_0" departPos="5.10" departSpeed="0.00" departDelay="2.60" arrival="143.00" arrivalLane="-road4_0" arrivalPos="195.25" arrivalSpeed="13.57" duration="72.00" routeLength="394.90" waitSteps="22" timeLoss="42.77" rerouteNo="0" devices="tripinfo_57" vType="DEFAULT_VEHTYPE" speedFactor="1.00" vaporized=""/>
    <tripinfo id="58" depart="74.00" departLane="road2_0" departPos="5.10" departSpeed="0.00" departDelay="4.40" arrival="145.00" arrivalLane="-road4_0" arrivalPos="195.25" arrivalSpeed="12.72" duration="71.00" routeLength="394.90" waitSteps="21" timeLoss="41.76" rerouteNo="0" devices="tripinfo_58" vType="DEFAULT_VEHTYPE" speedFactor="1.00" vaporized=""/>
    <tripinfo id="64" depart="77.00" departLane="road2_0" departPos="5.10" departSpeed="0.00" departDelay="0.20" arrival="147.00" arrivalLane="-road4_0" arrivalPos="195.25" arrivalSpeed="13.29" duration="70.00" routeLength="394.90" waitSteps="19" timeLoss="40.64" rerouteNo="0" devices="tripinfo_64" vType="DEFAULT_VEHTYPE" speedFactor="1.00" vaporized=""/>
    <tripinfo id="75" depart="90.00" departLane="road2_0" departPos="5.10" departSpeed="0.00" departDelay="0.00" arrival="148.00" arrivalLane="-road4_0" arrivalPos="195.25" arrivalSpeed="13.51" duration="58.00" routeLength="394.90" waitSteps="8" timeLoss="29.26" rerouteNo="0" devices="tripinfo_75" vType="DEFAULT_VEHTYPE" speedFactor="1.00" vaporized=""/>
    <tripinfo id="51" depart="61.00" departLane="road4_0" departPos="5.10" departSpeed="0.00" departDelay="-0.20" arrival="151.00" arrivalLane="road1_0" arrivalPos="195.25" arrivalSpeed="12.63" duration="90.00" routeLength="395.72" waitSteps="45" timeLoss="61.24" rerouteNo="0" devices="tripinfo_51" vType="DEFAULT_VEHTYPE" speedFactor="1.00" vaporized=""/>
    <tripinfo id="80" depart="96.00" departLane="road2_0" departPos="5.10" departSpeed="0.00" departDelay="0.00" arrival="151.00" arrivalLane="-road3_0" arrivalPos="195.25" arrivalSpeed="13.23" duration="55.00" routeLength="395.72" waitSteps="3" timeLoss="26.34" rerouteNo="0" devices="tripinfo_80" vType="DEFAULT_VEHTYPE" speedFactor="1.00" vaporized=""/>
    <tripinfo id="60" depart="72.00" departLane="road4_0" departPos="5.10" departSpeed="0.00" departDelay="0.00" arrival="153.00" arrivalLane="road1_0" arrivalPos="195.25" arrivalSpeed="13.78" duration="81.00" routeLength="395.72" waitSteps="34" timeLoss="52.16" rerouteNo="0" devices="tripinfo_60" vType="DEFAULT_VEHTYPE" speedFactor="1.00" vaporized=""/>
    <tripinfo id="61" depart="75.00" departLane="road4_0" departPos="5.10" departSpeed="0.00" departDelay="1.80" arrival="155.00" arrivalLane="-road2_0" arrivalPos="195.25" arrivalSpeed="13.42" duration="80.00" routeLength="394.90" waitSteps="29" timeLoss="51.33" rerouteNo="0" devices="tripinfo_61" vType="DEFAULT_VEHTYPE" speedFactor="1.00" vaporized=""/>
    <tripinfo id="67" depart="80.00" departLane="road4_0" departPos="5.10" departSpeed="0.00" departDelay="-0.40" arrival="157.00" arrivalLane="-road2_0" arrivalPos="195.25" arrivalSpeed="13.60" duration="77.00" routeLength="394.90" waitSteps="28" timeLoss="48.11" rerouteNo="0" devices="tripinfo_67" vType="DEFAULT_VEHTYPE" speedFactor="1.00" vaporized=""/>
    <tripinfo id="74" depart="88.00" departLane="road4_0" departPos="5.10" departSpeed="0.00" departDelay="-0.80" arrival="160.00" arrivalLane="road1_0" arrivalPos="195.25" arrivalSpeed="13.13" duration="72.00" routeLength="395.72" waitSteps="22" timeLoss="42.63" rerouteNo="0" devices="tripinfo_74" vType="DEFAULT_VEHTYPE" speedFactor="1.00" vaporized=""/>
    <tripinfo id="84" depart="100.00" departLane="road4_0" departPos="5.10" departSpeed="0.00" departDelay="-0.80" arrival="161.00" arrivalLane="-road3_0" arrivalPos="195.25" arrivalSpeed="13.24" duration="61.00" routeLength="390.40" waitSteps="15" timeLoss="31.95" rerouteNo="0" devices="tripinfo_84" vType="DEFAULT_VEHTYPE" speedFactor="1.00" vaporized=""/>
    <tripinfo id="83" depart="99.00" departLane="road2_0" departPos="5.10" departSpeed="0.00" departDelay="-0.60" arrival="164.00" arrivalLane="-road3_0" arrivalPos="195.25" arrivalSpeed="13.44" duration="65.00" routeLength="395.72" waitSteps="8" timeLoss="36.46" rerouteNo="0" devices="tripinfo_83" vType="DEFAULT_VEHTYPE" speedFactor="1.00" vaporized=""/>
    <tripinfo id="86" depart="103.00" departLane="road4_0" departPos="5.10" departSpeed="0.00" departDelay="-0.20" arrival="165.00" arrivalLane="road1_0" arrivalPos="195.25" arrivalSpeed="13.62" duration="62.00" routeLength="395.72" waitSteps="15" timeLoss="32.54" rerouteNo="0" devices="tripinfo_86" vType="DEFAULT_VEHTYPE" speedFactor="1.00" vaporized=""/>
    <tripinfo id="87" depart="106.00" departLane="road4_0" departPos="5.10" departSpeed="0.00" departDelay="1.60" arrival="167.00" arrivalLane="road1_0" arrivalPos="195.25" arrivalSpeed="13.18" duration="61.00" routeLength="395.72" waitSteps="14" timeLoss="31.73" rerouteNo="0" devices="tripinfo_87" vType="DEFAULT_VEHTYPE" speedFactor="1.00" vaporized=""/>
    <tripinfo id="85" depart="102.00" departLane="road2_0" departPos="5.10" departSpeed="0.00" departDelay="0.00" arrival="167.00" arrivalLane="-road3_0" arrivalPos="195.25" arrivalSpeed="13.02" duration="65.00" routeLength="395.72" waitSteps="6" timeLoss="35.59" rerouteNo="0" devices="tripinfo_85" vType="DEFAULT_VEHTYPE" speedFactor="1.00" vaporized=""/>
    <tripinfo id="28" depart="37.00" departLane="road3_0" departPos="5.10" departSpeed="0.00" departDelay="3.40" arrival="169.00" arrivalLane="-road2_0" arrivalPos="195.25" arrivalSpeed="13.20" duration="132.00" routeLength="390.40" waitSteps="67" timeLoss="103.06" rerouteNo="0" devices="tripinfo_28" vType="DEFAULT_VEHTYPE" speedFactor="1.00" vaporized=""/>
    <tripinfo id="81" depart="97.00" departLane="-road1_0" departPos="5.10" departSpeed="0.00" departDelay="-0.20" arrival="169.00" arrivalLane="-road4_0" arrivalPos="195.25" arrivalSpeed="13.49" duration="72.00" routeLength="390.40" waitSteps="32" timeLoss="43.31" rerouteNo="0" devices="tripinfo_81" vType="DEFAULT_VEHTYPE" speedFactor="1.00" vaporized=""/>
    <tripinfo id="91" depart="109.00" departLane="-road1_0" departPos="5.10" departSpeed="0.00" departDelay="-0.20" arrival="170.00" arrivalLane="-road3_0" arrivalPos="195.25" arrivalSpeed="13.37" duration="61.00" routeLength="394.90" waitSteps="24" timeLoss="32.55" rerouteNo="0" devices="tripinfo_91" vType="DEFAULT_VEHTYPE" speedFactor="1.00" vaporized=""/>
    <tripinfo id="29" depart="40.00" departLane="road3_0" departPos="5.10" departSpeed="0.00" departDelay="5.20" arrival="172.00" arrivalLane="-road4_0" arrivalPos="195.25" arrivalSpeed="13.69" duration="132.00" routeLength="395.72" waitSteps="65" timeLoss="103.01" rerouteNo="0" devices="tripinfo_29" vType="DEFAULT_VEHTYPE" speedFactor="1.00" vaporized=""/>
    <tripinfo id="36" depart="43.00" departLane="road3_0" departPos="5.10" departSpeed="0.00" departDelay="-0.20" arrival="174.00" arrivalLane="road1_0" arrivalPos="195.25" arrivalSpeed="12.71" duration="131.00" routeLength="394.90" waitSteps="64" timeLoss="101.83" rerouteNo="0" devices="tripinfo_36" vType="DEFAULT_VEHTYPE" speedFactor="1.00" vaporized=""/>
    <tripinfo id="112" depart="134.00" departLane="-road1_0" departPos="5.10" departSpeed="0.00" departDelay="-0.40" arrival="177.00" arrivalLane="-road2_0" arrivalPos="195.25" arrivalSpeed="13.44" duration="43.00" routeLength="395.72" waitSteps="0" timeLoss="13.72" rerouteNo="0" devices="tripinfo_112" vType="DEFAULT_VEHTYPE" speedFactor="1.00" vaporized=""/>
    <tripinfo id="45" depart="54.00" departLane="road3_0" departPos="5.10" departSpeed="0.00" departDelay="0.00" arrival="177.00" arrivalLane="-road4_0" arrivalPos="195.25" arrivalSpeed="12.95" duration="123.00" routeLength="395.72" waitSteps="54" timeLoss="93.98" rerouteNo="0" devices="tripinfo_45" vType="DEFAULT_VEHTYPE" speedFactor="1.00" vaporized=""/>
    <tripinfo id="46" depart="57.00" departLane="road3_0" departPos="5.10" departSpeed="0.00" departDelay="1.80" arrival="179.00" arrivalLane="-road4_0" arrivalPos="195.25" arrivalSpeed="13.42" duration="122.00" routeLength="395.72" waitSteps="51" timeLoss="92.90" rerouteNo="0" devices="tripinfo_46" vType="DEFAULT_VEHTYPE" speedFactor="1.00" vaporized=""/>
    <tripinfo id="53" depart="63.00" departLane="road3_0" departPos="5.10" departSpeed="0.00" departDelay="-0.60" arrival="180.00" arrivalLane="-road2_0" arrivalPos="195.25" arrivalSpeed="12.68" duration="117.00" routeLength="390.40" waitSteps="50" timeLoss="88.15" rerouteNo="0" devices="tripinfo_53" vType="DEFAULT_VEHTYPE" speedFactor="1.00" vaporized=""/>
    <tripinfo id="72" depart="86.00" departLane="road3_0" departPos="5.10" departSpeed="0.00" departDelay="-0.40" arrival="181.00" arrivalLane="-road2_0" arrivalPos="195.25" arrivalSpeed="13.18" duration="95.00" routeLength="390.40" waitSteps="42" timeLoss="66.83" rerouteNo="0" devices="tripinfo_72" vType="DEFAULT_VEHTYPE" speedFactor="1.00" vaporized=""/>
    <tripinfo id="125" depart="150.00" departLane="-road1_0" departPos="5.10" departSpeed="0.00" departDelay="0.00" arrival="183.00" arrivalLane="-road4_0" arrivalPos="195.25" arrivalSpeed="13.84" duration="33.00" routeLength="390.40" waitSteps="0" timeLoss="4.62" rerouteNo="0" devices="tripinfo_125" vType="DEFAULT_VEHTYPE" speedFactor="1.00" vaporized=""/>
    <tripinfo id="128" depart="153.00" departLane="-road1_0" departPos="5.10" departSpeed="0.00" departDelay="-0.60" arrival="186.00" arrivalLane="-road3_0" arrivalPos="195.25" arrivalSpeed="13.08" duration="33.00" routeLength="394.90" waitSteps="0" timeLoss="4.30" rerouteNo="0" devices="tripinfo_128" vType="DEFAULT_VEHTYPE" speedFactor="1.00" vaporized=""/>
    <tripinfo id="73" depart="89.00" departLane="road3_0" departPos="5.10" departSpeed="0.00" departDelay="1.40" arrival="189.00" arrivalLane="-road4_0" arrivalPos="195.25" arrivalSpeed="13.65" duration="100.00" routeLength="395.72" waitSteps="42" timeLoss="71.23" rerouteNo="0" devices="tripinfo_73" vType="DEFAULT_VEHTYPE" speedFactor="1.00" vaporized=""/>
    <tripinfo id="76" depart="92.00" departLane="road3_0" departPos="5.10" departSpeed="0.00" departDelay="0.80" arrival="190.00" arrivalLane="-road2_0" arrivalPos="195.25" arrivalSpeed="13.71" duration="98.00" routeLength="390.40" waitSteps="40" timeLoss="69.09" rerouteNo="0" devices="tripinfo_76" vType="DEFAULT_VEHTYPE" speedFactor="1.00" vaporized=""/>
    <tripinfo id="77" depart="95.00" departLane="road3_0" departPos="5.10" departSpeed="0.00" departDelay="2.60" arrival="192.00" arrivalLane="road1_0" arrivalPos="195.25" arrivalSpeed="13.48" duration="97.00" routeLength="394.90" waitSteps="40" timeLoss="67.93" rerouteNo="0" devices="tripinfo_77" vType="DEFAULT_VEHTYPE" speedFactor="1.00" vaporized=""/>
    <tripinfo id="78" depart="98.00" departLane="road3_0" departPos="5.10" departSpeed="0.00" departDelay="4.40" arrival="194.00" arrivalLane="road1_0" arrivalPos="195.25" arrivalSpeed="13.56" duration="96.00" routeLength="394.90" waitSteps="40" timeLoss="66.87" rerouteNo="0" devices="tripinfo_78" vType="DEFAULT_VEHTYPE" speedFactor="1.00" vaporized=""/>
    <tripinfo id="92" depart="110.00" departLane="road3_0" departPos="5.10" departSpeed="0.00" departDelay="-0.40" arrival="195.00" arrivalLane="-road2_0" arrivalPos="195.25" arrivalSpeed="13.00" duration="85.00" routeLength="390.40" waitSteps="37" timeLoss="56.59" rerouteNo="0" devices="tripinfo_92" vType="DEFAULT_VEHTYPE" speedFactor="1.00" vaporized=""/>
    <tripinfo id="93" depart="113.00" departLane="road3_0" departPos="5.10" departSpeed="0.00" departDelay="1.40" arrival="197.00" arrivalLane="-road2_0" arrivalPos="195.25" arrivalSpeed="13.34" duration="84.00" routeLength="390.40" waitSteps="34" timeLoss="55.68" rerouteNo="0" devices="tripinfo_93" vType="DEFAULT_VEHTYPE" speedFactor="1.00" vaporized=""/>
    <tripinfo id="96" depart="116.00" departLane="road3_0" departPos="5.10" departSpeed="0.00" departDelay="0.80" arrival="200.00" arrivalLane="road1_0" arrivalPos="195.25" arrivalSpeed="13.87" duration="84.00" routeLength="394.90" waitSteps="34" timeLoss="54.77" rerouteNo="0" devices="tripinfo_96" vType="DEFAULT_VEHTYPE" speedFactor="1.00" vaporized=""/>
    <tripinfo id="97" depart="119.00" departLane="road3_0" departPos="5.10" departSpeed="0.00" departDelay="2.60" arrival="202.00" arrivalLane="road1_0" arrivalPos="195.25" arrivalSpeed="13.45" duration="83.00" routeLength="394.90" waitSteps="32" timeLoss="53.81" rerouteNo="0" devices="tripinfo_97" vType="DEFAULT_VEHTYPE" speedFactor="1.00" vaporized=""/>
    <tripinfo id="104" depart="124.00" departLane="road3_0" departPos="5.10" departSpeed="0.00" departDelay="-0.80" arrival="203.00" arrivalLane="-road2_0" arrivalPos="195.25" arrivalSpeed="13.08" duration="79.00" routeLength="390.40" waitSteps="31" timeLoss="50.42" rerouteNo="0" devices="tripinfo_104" vType="DEFAULT_VEHTYPE" speedFactor="1.00" vaporized=""/>
    <tripinfo id="142" depart="170.00" departLane="-road1_0" departPos="5.10" departSpeed="0.00" departDelay="-0.40" arrival="203.00" arrivalLane="-road4_0" arrivalPos="195.25" arrivalSpeed="13.58" duration="33.00" routeLength="390.40" waitSteps="0" timeLoss="4.58" rerouteNo="0" devices="tripinfo_142" vType="DEFAULT_VEHTYPE" speedFactor="1.00" vaporized=""/>
    <tripinfo id="114" depart="136.00" departLane="road3_0" departPos="5.10" departSpeed="0.00" departDelay="-0.80" arrival="205.00" arrivalLane="road1_0" arrivalPos="195.25" arrivalSpeed="13.58" duration="69.00" routeLength="394.90" waitSteps="21" timeLoss="40.57" rerouteNo="0" devices="tripinfo_114" vType="DEFAULT_VEHTYPE" speedFactor="1.00" vaporized=""/>
    <tripinfo id="115" depart="139.00" departLane="road3_0" departPos="5.10" departSpeed="0.00" departDelay="1.00" arrival="207.00" arrivalLane="-road2_0" arrivalPos="195.25" arrivalSpeed="13.29" duration="68.00" routeLength="390.40" waitSteps="19" timeLoss="39.35" rerouteNo="0" devices="tripinfo_115" vType="DEFAULT_VEHTYPE" speedFactor="1.00" vaporized=""/>
    <tripinfo id="148" depart="177.00" departLane="-road1_0" departPos="5.10" departSpeed="0.00" departDelay="-0.60" arrival="210.00" arrivalLane="-road4_0" arrivalPos="195.25" arrivalSpeed="13.18" duration="33.00" routeLength="390.40" waitSteps="0" timeLoss="4.43" rerouteNo="0" devices="tripinfo_148" vType="DEFAULT_VEHTYPE" speedFactor="1.00" vaporized=""/>
    <tripinfo id="116" depart="142.00" departLane="road3_0" departPos="5.10" departSpeed="0.00" departDelay="2.80" arrival="214.00" arrivalLane="-road4_0" arrivalPos="195.25" arrivalSpeed="13.07" duration="72.00" routeLength="395.72" waitSteps="16" timeLoss="43.23" rerouteNo="0" devices="tripinfo_116" vType="DEFAULT_VEHTYPE" speedFactor="1.00" vaporized=""/>