<?xml version="1.0" encoding="UTF-8"?>

<!-- generated on 04/17/18 18:02:54 by SUMO Version 0.31.0
<?xml version="1.0" encoding="UTF-8"?>

<configuration xmlns:xsi="http://www.w3.org/2001/XMLSchema-instance" xsi:noNamespaceSchemaLocation="http://sumo.dlr.de/xsd/sumoConfiguration.xsd">

    <input>
        <net-file value="..\test_environments\single_intersection_map\newnet.net.xml"/>
        <route-files value="..\test_environments\single_intersection_map\newnet.rou.xml"/>
    </input>

    <output>
        <tripinfo-output value="tripinfo.xml"/>
    </output>

    <time>
        <begin value="0"/>
        <end value="10000"/>
    </time>

    <processing>
        <time-to-teleport value="-1"/>
    </processing>

    <traci_server>
        <remote-port value="1552"/>
    </traci_server>

</configuration>
-->

<tripinfos xmlns:xsi="http://www.w3.org/2001/XMLSchema-instance" xsi:noNamespaceSchemaLocation="http://sumo.dlr.de/xsd/tripinfo_file.xsd">
    <tripinfo id="type11.0" depart="3.00" departLane="road3_0" departPos="5.60" departSpeed="0.00" departDelay="3.00" arrival="22.00" arrivalLane="-road2_0" arrivalPos="66.23" arrivalSpeed="12.26" duration="19.00" routeLength="172.92" waitSteps="0" timeLoss="6.31" rerouteNo="0" devices="tripinfo_type11.0" vType="CarB" speedFactor="1.00" vaporized=""/>
    <tripinfo id="type2.0" depart="0.00" departLane="road3_0" departPos="5.60" departSpeed="0.00" departDelay="0.00" arrival="28.00" arrivalLane="road1_0" arrivalPos="199.35" arrivalSpeed="13.53" duration="28.00" routeLength="310.49" waitSteps="0" timeLoss="5.13" rerouteNo="0" devices="tripinfo_type2.0" vType="CarB" speedFactor="1.00" vaporized=""/>
    <tripinfo id="type12.0" depart="7.00" departLane="road3_0" departPos="5.10" departSpeed="0.00" departDelay="7.00" arrival="28.00" arrivalLane="-road4_0" arrivalPos="55.50" arrivalSpeed="11.26" duration="21.00" routeLength="168.41" waitSteps="0" timeLoss="8.59" rerouteNo="0" devices="tripinfo_type12.0" vType="CarA" speedFactor="1.00" vaporized=""/>
    <tripinfo id="type5.0" depart="4.00" departLane="-road1_0" departPos="5.10" departSpeed="0.00" departDelay="4.00" arrival="29.00" arrivalLane="-road2_0" arrivalPos="66.23" arrivalSpeed="11.91" duration="25.00" routeLength="270.96" waitSteps="0" timeLoss="5.13" rerouteNo="0" devices="tripinfo_type5.0" vType="CarA" speedFactor="1.00" vaporized=""/>
    <tripinfo id="type1.0" depart="0.00" departLane="-road1_0" departPos="5.10" departSpeed="0.00" departDelay="0.00" arrival="30.00" arrivalLane="-road3_0" arrivalPos="107.12" arrivalSpeed="11.76" duration="30.00" routeLength="311.07" waitSteps="0" timeLoss="7.26" rerouteNo="0" devices="tripinfo_type1.0" vType="CarA" speedFactor="1.00" vaporized=""/>
    <tripinfo id="type6.0" depart="7.00" departLane="-road1_0" departPos="5.60" departSpeed="0.00" departDelay="7.00" arrival="32.00" arrivalLane="-road4_0" arrivalPos="55.50" arrivalSpeed="12.15" duration="25.00" routeLength="254.62" waitSteps="0" timeLoss="5.86" rerouteNo="0" devices="tripinfo_type6.0" vType="CarB" speedFactor="1.00" vaporized=""/>
    <tripinfo id="type11.1" depart="24.00" departLane="road3_0" departPos="5.60" departSpeed="0.00" departDelay="4.00" arrival="43.00" arrivalLane="-road2_0" arrivalPos="66.23" arrivalSpeed="12.42" duration="19.00" routeLength="172.92" waitSteps="0" timeLoss="6.46" rerouteNo="0" devices="tripinfo_type11.1" vType="CarB" speedFactor="1.00" vaporized=""/>
    <tripinfo id="type5.1" depart="22.00" departLane="-road1_0" departPos="5.10" departSpeed="0.00" departDelay="2.00" arrival="48.00" arrivalLane="-road2_0" arrivalPos="66.23" arrivalSpeed="13.58" duration="26.00" routeLength="270.96" waitSteps="0" timeLoss="5.64" rerouteNo="0" devices="tripinfo_type5.1" vType="CarA" speedFactor="1.00" vaporized=""/>
    <tripinfo id="type1.1" depart="20.00" departLane="-road1_0" departPos="5.10" departSpeed="0.00" departDelay="0.00" arrival="48.00" arrivalLane="-road3_0" arrivalPos="107.12" arrivalSpeed="13.14" duration="28.00" routeLength="311.07" waitSteps="0" timeLoss="4.70" rerouteNo="0" devices="tripinfo_type1.1" vType="CarA" speedFactor="1.00" vaporized=""/>
    <tripinfo id="type12.1" depart="28.00" departLane="road3_0" departPos="5.10" departSpeed="0.00" departDelay="8.00" arrival="48.00" arrivalLane="-road4_0" arrivalPos="55.50" arrivalSpeed="11.34" duration="20.00" routeLength="168.41" waitSteps="0" timeLoss="7.86" rerouteNo="0" devices="tripinfo_type12.1" vType="CarA" speedFactor="1.00" vaporized=""/>
    <tripinfo id="type2.1" depart="20.00" departLane="road3_0" departPos="5.60" departSpeed="0.00" departDelay="0.00" arrival="50.00" arrivalLane="road1_0" arrivalPos="199.35" arrivalSpeed="12.97" duration="30.00" routeLength="310.49" waitSteps="0" timeLoss="7.58" rerouteNo="0" devices="tripinfo_type2.1" vType="CarB" speedFactor="1.00" vaporized=""/>
    <tripinfo id="type6.1" depart="26.00" departLane="-road1_0" departPos="5.60" departSpeed="0.00" departDelay="6.00" arrival="52.00" arrivalLane="-road4_0" arrivalPos="55.50" arrivalSpeed="12.64" duration="26.00" routeLength="254.62" waitSteps="0" timeLoss="7.64" rerouteNo="0" devices="tripinfo_type6.1" vType="CarB" speedFactor="1.00" vaporized=""/>
    <tripinfo id="type11.2" depart="44.00" departLane="road3_0" departPos="5.60" departSpeed="0.00" departDelay="4.00" arrival="63.00" arrivalLane="-road2_0" arrivalPos="66.23" arrivalSpeed="13.02" duration="19.00" routeLength="172.92" waitSteps="0" timeLoss="5.89" rerouteNo="0" devices="tripinfo_type11.2" vType="CarB" speedFactor="1.00" vaporized=""/>
    <tripinfo id="type12.2" depart="49.00" departLane="road3_0" departPos="5.10" departSpeed="0.00" departDelay="9.00" arrival="67.00" arrivalLane="-road4_0" arrivalPos="55.50" arrivalSpeed="13.53" duration="18.00" routeLength="168.41" waitSteps="0" timeLoss="5.86" rerouteNo="0" devices="tripinfo_type12.2" vType="CarA" speedFactor="1.00" vaporized=""/>
    <tripinfo id="type1.2" depart="40.00" departLane="-road1_0" departPos="5.10" departSpeed="0.00" departDelay="0.00" arrival="69.00" arrivalLane="-road3_0" arrivalPos="107.12" arrivalSpeed="13.43" duration="29.00" routeLength="311.07" waitSteps="0" timeLoss="5.79" rerouteNo="0" devices="tripinfo_type1.2" vType="CarA" speedFactor="1.00" vaporized=""/>
    <tripinfo id="type2.2" depart="40.00" departLane="road3_0" departPos="5.60" departSpeed="0.00" departDelay="0.00" arrival="70.00" arrivalLane="road1_0" arrivalPos="199.35" arrivalSpeed="13.56" duration="30.00" routeLength="310.49" waitSteps="0" timeLoss="7.60" rerouteNo="0" devices="tripinfo_type2.2" vType="CarB" speedFactor="1.00" vaporized=""/>
    <tripinfo id="type5.2" depart="44.00" departLane="-road1_0" departPos="5.10" departSpeed="0.00" departDelay="4.00" arrival="71.00" arrivalLane="-road2_0" arrivalPos="66.23" arrivalSpeed="12.96" duration="27.00" routeLength="270.96" waitSteps="0" timeLoss="6.97" rerouteNo="0" devices="tripinfo_type5.2" vType="CarA" speedFactor="1.00" vaporized=""/>
    <tripinfo id="type6.2" depart="48.00" departLane="-road1_0" departPos="5.60" departSpeed="0.00" departDelay="8.00" arrival="74.00" arrivalLane="-road4_0" arrivalPos="55.50" arrivalSpeed="12.98" duration="26.00" routeLength="254.62" waitSteps="0" timeLoss="7.04" rerouteNo="0" devices="tripinfo_type6.2" vType="CarB" speedFactor="1.00" vaporized=""/>
    <tripinfo id="type11.3" depart="64.00" departLane="road3_0" departPos="5.60" departSpeed="0.00" departDelay="4.00" arrival="84.00" arrivalLane="-road2_0" arrivalPos="66.23" arrivalSpeed="13.00" duration="20.00" routeLength="172.92" waitSteps="0" timeLoss="7.04" rerouteNo="0" devices="tripinfo_type11.3" vType="CarB" speedFactor="1.00" vaporized=""/>
    <tripinfo id="type12.3" depart="67.00" departLane="road3_0" departPos="5.10" departSpeed="0.00" departDelay="7.00" arrival="88.00" arrivalLane="-road4_0" arrivalPos="55.50" arrivalSpeed="12.33" duration="21.00" routeLength="168.41" waitSteps="0" timeLoss="8.39" rerouteNo="0" devices="tripinfo_type12.3" vType="CarA" speedFactor="1.00" vaporized=""/>
    <tripinfo id="type1.3" depart="60.00" departLane="-road1_0" departPos="5.10" departSpeed="0.00" departDelay="0.00" arrival="89.00" arrivalLane="-road3_0" arrivalPos="107.12" arrivalSpeed="13.89" duration="29.00" routeLength="311.07" waitSteps="0" timeLoss="6.07" rerouteNo="0" devices="tripinfo_type1.3" vType="CarA" speedFactor="1.00" vaporized=""/>
    <tripinfo id="type5.3" depart="64.00" departLane="-road1_0" departPos="5.10" departSpeed="0.00" departDelay="4.00" arrival="89.00" arrivalLane="-road2_0" arrivalPos="66.23" arrivalSpeed="13.24" duration="25.00" routeLength="270.96" waitSteps="0" timeLoss="5.35" rerouteNo="0" devices="tripinfo_type5.3" vType="CarA" speedFactor="1.00" vaporized=""/>
    <tripinfo id="type2.3" depart="60.00" departLane="road3_0" departPos="5.60" departSpeed="0.00" departDelay="0.00" arrival="90.00" arrivalLane="road1_0" arrivalPos="199.35" arrivalSpeed="12.40" duration="30.00" routeLength="310.49" waitSteps="0" timeLoss="6.99" rerouteNo="0" devices="tripinfo_type2.3" vType="CarB" speedFactor="1.00" vaporized=""/>
    <tripinfo id="type6.3" depart="67.00" departLane="-road1_0" departPos="5.60" departSpeed="0.00" departDelay="7.00" arrival="92.00" arrivalLane="-road4_0" arrivalPos="55.50" arrivalSpeed="13.13" duration="25.00" routeLength="254.62" waitSteps="0" timeLoss="6.59" rerouteNo="0" devices="tripinfo_type6.3" vType="CarB" speedFactor="1.00" vaporized=""/>
</tripinfos>
