<?xml version="1.0" encoding="UTF-8"?>

<!-- generated on 04/14/18 00:21:03 by SUMO Version 0.31.0
<?xml version="1.0" encoding="UTF-8"?>

<configuration xmlns:xsi="http://www.w3.org/2001/XMLSchema-instance" xsi:noNamespaceSchemaLocation="http://sumo.dlr.de/xsd/sumoConfiguration.xsd">

    <input>
        <net-file value="..\test_environments\single_intersection_map\newnet.net.xml"/>
        <route-files value="..\test_environments\single_intersection_map\newnet.rou.xml"/>
    </input>

    <output>
        <tripinfo-output value="tripinfo.xml"/>
    </output>

    <time>
        <begin value="54000"/>
        <end value="54900"/>
    </time>

    <processing>
        <time-to-teleport value="-1"/>
    </processing>

    <traci_server>
        <remote-port value="33399"/>
    </traci_server>

</configuration>
-->

<tripinfos xmlns:xsi="http://www.w3.org/2001/XMLSchema-instance" xsi:noNamespaceSchemaLocation="http://sumo.dlr.de/xsd/tripinfo_file.xsd">
    <tripinfo id="type11.0" depart="54003.00" departLane="road3_0" departPos="5.60" departSpeed="0.00" departDelay="3.00" arrival="54022.00" arrivalLane="-road2_0" arrivalPos="66.23" arrivalSpeed="12.26" duration="19.00" routeLength="172.92" waitSteps="0" timeLoss="6.31" rerouteNo="0" devices="tripinfo_type11.0" vType="CarB" speedFactor="1.00" vaporized=""/>
    <tripinfo id="type2.0" depart="54000.00" departLane="road3_0" departPos="5.60" departSpeed="0.00" departDelay="0.00" arrival="54028.00" arrivalLane="road1_0" arrivalPos="199.35" arrivalSpeed="13.53" duration="28.00" routeLength="310.49" waitSteps="0" timeLoss="5.13" rerouteNo="0" devices="tripinfo_type2.0" vType="CarB" speedFactor="1.00" vaporized=""/>
    <tripinfo id="type12.0" depart="54007.00" departLane="road3_0" departPos="5.10" departSpeed="0.00" departDelay="7.00" arrival="54028.00" arrivalLane="-road4_0" arrivalPos="55.50" arrivalSpeed="11.26" duration="21.00" routeLength="168.41" waitSteps="0" timeLoss="8.59" rerouteNo="0" devices="tripinfo_type12.0" vType="CarA" speedFactor="1.00" vaporized=""/>
    <tripinfo id="type5.0" depart="54004.00" departLane="-road1_0" departPos="5.10" departSpeed="0.00" departDelay="4.00" arrival="54029.00" arrivalLane="-road2_0" arrivalPos="66.23" arrivalSpeed="11.91" duration="25.00" routeLength="270.96" waitSteps="0" timeLoss="5.13" rerouteNo="0" devices="tripinfo_type5.0" vType="CarA" speedFactor="1.00" vaporized=""/>
    <tripinfo id="type1.0" depart="54000.00" departLane="-road1_0" departPos="5.10" departSpeed="0.00" departDelay="0.00" arrival="54030.00" arrivalLane="-road3_0" arrivalPos="107.12" arrivalSpeed="11.76" duration="30.00" routeLength="311.07" waitSteps="0" timeLoss="7.26" rerouteNo="0" devices="tripinfo_type1.0" vType="CarA" speedFactor="1.00" vaporized=""/>
    <tripinfo id="type6.0" depart="54007.00" departLane="-road1_0" departPos="5.60" departSpeed="0.00" departDelay="7.00" arrival="54032.00" arrivalLane="-road4_0" arrivalPos="55.50" arrivalSpeed="12.15" duration="25.00" routeLength="254.62" waitSteps="0" timeLoss="5.86" rerouteNo="0" devices="tripinfo_type6.0" vType="CarB" speedFactor="1.00" vaporized=""/>
    <tripinfo id="type11.1" depart="54024.00" departLane="road3_0" departPos="5.60" departSpeed="0.00" departDelay="4.00" arrival="54043.00" arrivalLane="-road2_0" arrivalPos="66.23" arrivalSpeed="12.42" duration="19.00" routeLength="172.92" waitSteps="0" timeLoss="6.46" rerouteNo="0" devices="tripinfo_type11.1" vType="CarB" speedFactor="1.00" vaporized=""/>
    <tripinfo id="type5.1" depart="54022.00" departLane="-road1_0" departPos="5.10" departSpeed="0.00" departDelay="2.00" arrival="54048.00" arrivalLane="-road2_0" arrivalPos="66.23" arrivalSpeed="13.58" duration="26.00" routeLength="270.96" waitSteps="0" timeLoss="5.64" rerouteNo="0" devices="tripinfo_type5.1" vType="CarA" speedFactor="1.00" vaporized=""/>
    <tripinfo id="type1.1" depart="54020.00" departLane="-road1_0" departPos="5.10" departSpeed="0.00" departDelay="0.00" arrival="54048.00" arrivalLane="-road3_0" arrivalPos="107.12" arrivalSpeed="13.14" duration="28.00" routeLength="311.07" waitSteps="0" timeLoss="4.70" rerouteNo="0" devices="tripinfo_type1.1" vType="CarA" speedFactor="1.00" vaporized=""/>
    <tripinfo id="type12.1" depart="54028.00" departLane="road3_0" departPos="5.10" departSpeed="0.00" departDelay="8.00" arrival="54048.00" arrivalLane="-road4_0" arrivalPos="55.50" arrivalSpeed="11.34" duration="20.00" routeLength="168.41" waitSteps="0" timeLoss="7.86" rerouteNo="0" devices="tripinfo_type12.1" vType="CarA" speedFactor="1.00" vaporized=""/>
    <tripinfo id="type2.1" depart="54020.00" departLane="road3_0" departPos="5.60" departSpeed="0.00" departDelay="0.00" arrival="54050.00" arrivalLane="road1_0" arrivalPos="199.35" arrivalSpeed="12.97" duration="30.00" routeLength="310.49" waitSteps="0" timeLoss="7.58" rerouteNo="0" devices="tripinfo_type2.1" vType="CarB" speedFactor="1.00" vaporized=""/>
    <tripinfo id="type6.1" depart="54026.00" departLane="-road1_0" departPos="5.60" departSpeed="0.00" departDelay="6.00" arrival="54052.00" arrivalLane="-road4_0" arrivalPos="55.50" arrivalSpeed="12.64" duration="26.00" routeLength="254.62" waitSteps="0" timeLoss="7.64" rerouteNo="0" devices="tripinfo_type6.1" vType="CarB" speedFactor="1.00" vaporized=""/>
    <tripinfo id="type11.2" depart="54044.00" departLane="road3_0" departPos="5.60" departSpeed="0.00" departDelay="4.00" arrival="54063.00" arrivalLane="-road2_0" arrivalPos="66.23" arrivalSpeed="13.02" duration="19.00" routeLength="172.92" waitSteps="0" timeLoss="5.89" rerouteNo="0" devices="tripinfo_type11.2" vType="CarB" speedFactor="1.00" vaporized=""/>
    <tripinfo id="type12.2" depart="54049.00" departLane="road3_0" departPos="5.10" departSpeed="0.00" departDelay="9.00" arrival="54067.00" arrivalLane="-road4_0" arrivalPos="55.50" arrivalSpeed="13.53" duration="18.00" routeLength="168.41" waitSteps="0" timeLoss="5.86" rerouteNo="0" devices="tripinfo_type12.2" vType="CarA" speedFactor="1.00" vaporized=""/>
    <tripinfo id="type1.2" depart="54040.00" departLane="-road1_0" departPos="5.10" departSpeed="0.00" departDelay="0.00" arrival="54069.00" arrivalLane="-road3_0" arrivalPos="107.12" arrivalSpeed="13.43" duration="29.00" routeLength="311.07" waitSteps="0" timeLoss="5.79" rerouteNo="0" devices="tripinfo_type1.2" vType="CarA" speedFactor="1.00" vaporized=""/>
    <tripinfo id="type2.2" depart="54040.00" departLane="road3_0" departPos="5.60" departSpeed="0.00" departDelay="0.00" arrival="54070.00" arrivalLane="road1_0" arrivalPos="199.35" arrivalSpeed="13.56" duration="30.00" routeLength="310.49" waitSteps="0" timeLoss="7.60" rerouteNo="0" devices="tripinfo_type2.2" vType="CarB" speedFactor="1.00" vaporized=""/>
    <tripinfo id="type5.2" depart="54044.00" departLane="-road1_0" departPos="5.10" departSpeed="0.00" departDelay="4.00" arrival="54071.00" arrivalLane="-road2_0" arrivalPos="66.23" arrivalSpeed="12.96" duration="27.00" routeLength="270.96" waitSteps="0" timeLoss="6.97" rerouteNo="0" devices="tripinfo_type5.2" vType="CarA" speedFactor="1.00" vaporized=""/>
    <tripinfo id="type6.2" depart="54048.00" departLane="-road1_0" departPos="5.60" departSpeed="0.00" departDelay="8.00" arrival="54074.00" arrivalLane="-road4_0" arrivalPos="55.50" arrivalSpeed="12.28" duration="26.00" routeLength="254.62" waitSteps="0" timeLoss="7.09" rerouteNo="0" devices="tripinfo_type6.2" vType="CarB" speedFactor="1.00" vaporized=""/>
    <tripinfo id="type4.0" depart="54000.00" departLane="road2_0" departPos="5.10" departSpeed="0.00" departDelay="0.00" arrival="54082.00" arrivalLane="-road4_0" arrivalPos="55.50" arrivalSpeed="12.20" duration="82.00" routeLength="127.19" waitSteps="62" timeLoss="72.67" rerouteNo="0" devices="tripinfo_type4.0" vType="CarA" speedFactor="1.00" vaporized=""/>
    <tripinfo id="type3.0" depart="54000.00" departLane="road4_0" departPos="5.60" departSpeed="0.00" departDelay="0.00" arrival="54084.00" arrivalLane="-road2_0" arrivalPos="66.23" arrivalSpeed="12.92" duration="84.00" routeLength="125.99" waitSteps="61" timeLoss="74.61" rerouteNo="0" devices="tripinfo_type3.0" vType="CarB" speedFactor="1.00" vaporized=""/>
    <tripinfo id="type9.0" depart="54007.00" departLane="road4_0" departPos="5.10" departSpeed="0.00" departDelay="7.00" arrival="54092.00" arrivalLane="-road3_0" arrivalPos="107.12" arrivalSpeed="11.74" duration="85.00" routeLength="162.78" waitSteps="58" timeLoss="72.59" rerouteNo="0" devices="tripinfo_type9.0" vType="CarA" speedFactor="1.00" vaporized=""/>
    <tripinfo id="type3.1" depart="54020.00" departLane="road4_0" departPos="5.60" departSpeed="0.00" departDelay="0.00" arrival="54093.00" arrivalLane="-road2_0" arrivalPos="66.23" arrivalSpeed="12.70" duration="73.00" routeLength="125.99" waitSteps="49" timeLoss="63.29" rerouteNo="0" devices="tripinfo_type3.1" vType="CarB" speedFactor="1.00" vaporized=""/>
    <tripinfo id="type7.0" depart="54003.00" departLane="road2_0" departPos="5.60" departSpeed="0.00" departDelay="3.00" arrival="54097.00" arrivalLane="road1_0" arrivalPos="199.35" arrivalSpeed="12.88" duration="94.00" routeLength="265.57" waitSteps="61" timeLoss="73.99" rerouteNo="0" devices="tripinfo_type7.0" vType="CarB" speedFactor="1.00" vaporized=""/>
    <tripinfo id="type3.2" depart="54040.00" departLane="road4_0" departPos="5.60" departSpeed="0.00" departDelay="0.00" arrival="54099.00" arrivalLane="-road2_0" arrivalPos="66.23" arrivalSpeed="13.75" duration="59.00" routeLength="125.99" waitSteps="36" timeLoss="49.65" rerouteNo="0" devices="tripinfo_type3.2" vType="CarB" speedFactor="1.00" vaporized=""/>
    <tripinfo id="type9.1" depart="54027.00" departLane="road4_0" departPos="5.10" departSpeed="0.00" departDelay="7.00" arrival="54100.00" arrivalLane="-road3_0" arrivalPos="107.12" arrivalSpeed="11.40" duration="73.00" routeLength="162.78" waitSteps="46" timeLoss="60.64" rerouteNo="0" devices="tripinfo_type9.1" vType="CarA" speedFactor="1.00" vaporized=""/>
    <tripinfo id="type8.0" depart="54004.00" departLane="road4_0" departPos="5.10" departSpeed="0.00" departDelay="4.00" arrival="54102.00" arrivalLane="road1_0" arrivalPos="199.35" arrivalSpeed="12.65" duration="98.00" routeLength="260.05" waitSteps="58" timeLoss="78.53" rerouteNo="0" devices="tripinfo_type8.0" vType="CarA" speedFactor="1.00" vaporized=""/>
    <tripinfo id="type4.1" depart="54020.00" departLane="road2_0" departPos="5.10" departSpeed="0.00" departDelay="0.00" arrival="54103.00" arrivalLane="-road4_0" arrivalPos="55.50" arrivalSpeed="13.81" duration="83.00" routeLength="127.19" waitSteps="56" timeLoss="73.58" rerouteNo="0" devices="tripinfo_type4.1" vType="CarA" speedFactor="1.00" vaporized=""/>
    <tripinfo id="type8.1" depart="54023.00" departLane="road4_0" departPos="5.10" departSpeed="0.00" departDelay="3.00" arrival="54105.00" arrivalLane="road1_0" arrivalPos="199.35" arrivalSpeed="12.49" duration="82.00" routeLength="260.05" waitSteps="49" timeLoss="63.09" rerouteNo="0" devices="tripinfo_type8.1" vType="CarA" speedFactor="1.00" vaporized=""/>
    <tripinfo id="type10.0" depart="54007.00" departLane="road2_0" departPos="5.60" departSpeed="0.00" departDelay="7.00" arrival="54110.00" arrivalLane="-road3_0" arrivalPos="107.12" arrivalSpeed="12.46" duration="103.00" routeLength="178.79" waitSteps="68" timeLoss="89.83" rerouteNo="0" devices="tripinfo_type10.0" vType="CarB" speedFactor="1.00" vaporized=""/>
    <tripinfo id="type3.3" depart="54093.00" departLane="road4_0" departPos="5.60" departSpeed="0.00" departDelay="33.00" arrival="54110.00" arrivalLane="-road2_0" arrivalPos="66.23" arrivalSpeed="13.39" duration="17.00" routeLength="125.99" waitSteps="0" timeLoss="7.13" rerouteNo="0" devices="tripinfo_type3.3" vType="CarB" speedFactor="1.00" vaporized=""/>
    <tripinfo id="type9.2" depart="54090.00" departLane="road4_0" departPos="5.10" departSpeed="0.00" departDelay="50.00" arrival="54112.00" arrivalLane="-road3_0" arrivalPos="107.12" arrivalSpeed="11.69" duration="22.00" routeLength="162.78" waitSteps="0" timeLoss="10.01" rerouteNo="0" devices="tripinfo_type9.2" vType="CarA" speedFactor="1.00" vaporized=""/>
    <tripinfo id="type4.2" depart="54040.00" departLane="road2_0" departPos="5.10" departSpeed="0.00" departDelay="0.00" arrival="54112.00" arrivalLane="-road4_0" arrivalPos="55.50" arrivalSpeed="11.83" duration="72.00" routeLength="127.19" waitSteps="34" timeLoss="62.55" rerouteNo="0" devices="tripinfo_type4.2" vType="CarA" speedFactor="1.00" vaporized=""/>
    <tripinfo id="type10.1" depart="54027.00" departLane="road2_0" departPos="5.60" departSpeed="0.00" departDelay="7.00" arrival="54115.00" arrivalLane="-road3_0" arrivalPos="107.12" arrivalSpeed="12.22" duration="88.00" routeLength="178.79" waitSteps="47" timeLoss="74.92" rerouteNo="0" devices="tripinfo_type10.1" vType="CarB" speedFactor="1.00" vaporized=""/>
    <tripinfo id="type7.1" depart="54023.00" departLane="road2_0" departPos="5.60" departSpeed="0.00" departDelay="3.00" arrival="54119.00" arrivalLane="road1_0" arrivalPos="199.35" arrivalSpeed="12.10" duration="96.00" routeLength="265.57" waitSteps="51" timeLoss="76.26" rerouteNo="0" devices="tripinfo_type7.1" vType="CarB" speedFactor="1.00" vaporized=""/>
    <tripinfo id="type3.4" depart="54104.00" departLane="road4_0" departPos="5.60" departSpeed="0.00" departDelay="24.00" arrival="54120.00" arrivalLane="-road2_0" arrivalPos="66.23" arrivalSpeed="13.27" duration="16.00" routeLength="125.99" waitSteps="0" timeLoss="6.60" rerouteNo="0" devices="tripinfo_type3.4" vType="CarB" speedFactor="1.00" vaporized=""/>
    <tripinfo id="type9.3" depart="54100.00" departLane="road4_0" departPos="5.10" departSpeed="0.00" departDelay="40.00" arrival="54121.00" arrivalLane="-road3_0" arrivalPos="107.12" arrivalSpeed="12.18" duration="21.00" routeLength="162.78" waitSteps="0" timeLoss="8.73" rerouteNo="0" devices="tripinfo_type9.3" vType="CarA" speedFactor="1.00" vaporized=""/>
    <tripinfo id="type8.2" depart="54085.00" departLane="road4_0" departPos="5.10" departSpeed="0.00" departDelay="45.00" arrival="54124.00" arrivalLane="road1_0" arrivalPos="199.35" arrivalSpeed="12.92" duration="39.00" routeLength="260.05" waitSteps="6" timeLoss="19.41" rerouteNo="0" devices="tripinfo_type8.2" vType="CarA" speedFactor="1.00" vaporized=""/>
    <tripinfo id="type7.2" depart="54044.00" departLane="road2_0" departPos="5.60" departSpeed="0.00" departDelay="4.00" arrival="54127.00" arrivalLane="road1_0" arrivalPos="199.35" arrivalSpeed="13.30" duration="83.00" routeLength="265.57" waitSteps="35" timeLoss="63.21" rerouteNo="0" devices="tripinfo_type7.2" vType="CarB" speedFactor="1.00" vaporized=""/>
    <tripinfo id="type4.3" depart="54093.00" departLane="road2_0" departPos="5.10" departSpeed="0.00" departDelay="33.00" arrival="54127.00" arrivalLane="-road4_0" arrivalPos="55.50" arrivalSpeed="13.69" duration="34.00" routeLength="127.19" waitSteps="2" timeLoss="24.16" rerouteNo="0" devices="tripinfo_type4.3" vType="CarA" speedFactor="1.00" vaporized=""/>
    <tripinfo id="type10.2" depart="54088.00" departLane="road2_0" departPos="5.60" departSpeed="0.00" departDelay="48.00" arrival="54129.00" arrivalLane="-road3_0" arrivalPos="107.12" arrivalSpeed="12.90" duration="41.00" routeLength="178.79" waitSteps="3" timeLoss="27.89" rerouteNo="0" devices="tripinfo_type10.2" vType="CarB" speedFactor="1.00" vaporized=""/>
    <tripinfo id="type3.5" depart="54115.00" departLane="road4_0" departPos="5.60" departSpeed="0.00" departDelay="15.00" arrival="54130.00" arrivalLane="-road2_0" arrivalPos="66.23" arrivalSpeed="13.66" duration="15.00" routeLength="125.99" waitSteps="0" timeLoss="5.64" rerouteNo="0" devices="tripinfo_type3.5" vType="CarB" speedFactor="1.00" vaporized=""/>
    <tripinfo id="type9.4" depart="54112.00" departLane="road4_0" departPos="5.10" departSpeed="0.00" departDelay="32.00" arrival="54131.00" arrivalLane="-road3_0" arrivalPos="107.12" arrivalSpeed="12.19" duration="19.00" routeLength="162.78" waitSteps="0" timeLoss="7.02" rerouteNo="0" devices="tripinfo_type9.4" vType="CarA" speedFactor="1.00" vaporized=""/>
    <tripinfo id="type8.3" depart="54096.00" departLane="road4_0" departPos="5.10" departSpeed="0.00" departDelay="36.00" arrival="54132.00" arrivalLane="road1_0" arrivalPos="199.35" arrivalSpeed="12.71" duration="36.00" routeLength="260.05" waitSteps="2" timeLoss="17.15" rerouteNo="0" devices="tripinfo_type8.3" vType="CarA" speedFactor="1.00" vaporized=""/>
    <tripinfo id="type4.4" depart="54113.00" departLane="road2_0" departPos="5.10" departSpeed="0.00" departDelay="33.00" arrival="54134.00" arrivalLane="-road4_0" arrivalPos="55.50" arrivalSpeed="13.11" duration="21.00" routeLength="127.19" waitSteps="0" timeLoss="10.99" rerouteNo="0" devices="tripinfo_type4.4" vType="CarA" speedFactor="1.00" vaporized=""/>
    <tripinfo id="type10.3" depart="54108.00" departLane="road2_0" departPos="5.60" departSpeed="0.00" departDelay="48.00" arrival="54136.00" arrivalLane="-road3_0" arrivalPos="107.12" arrivalSpeed="13.35" duration="28.00" routeLength="178.79" waitSteps="0" timeLoss="14.50" rerouteNo="0" devices="tripinfo_type10.3" vType="CarB" speedFactor="1.00" vaporized=""/>
    <tripinfo id="type7.3" depart="54097.00" departLane="road2_0" departPos="5.60" departSpeed="0.00" departDelay="37.00" arrival="54139.00" arrivalLane="road1_0" arrivalPos="199.35" arrivalSpeed="13.50" duration="42.00" routeLength="265.57" waitSteps="1" timeLoss="22.57" rerouteNo="0" devices="tripinfo_type7.3" vType="CarB" speedFactor="1.00" vaporized=""/>
    <tripinfo id="type9.5" depart="54123.00" departLane="road4_0" departPos="5.10" departSpeed="0.00" departDelay="23.00" arrival="54141.00" arrivalLane="-road3_0" arrivalPos="107.12" arrivalSpeed="12.12" duration="18.00" routeLength="162.78" waitSteps="0" timeLoss="5.83" rerouteNo="0" devices="tripinfo_type9.5" vType="CarA" speedFactor="1.00" vaporized=""/>
    <tripinfo id="type3.6" depart="54126.00" departLane="road4_0" departPos="5.60" departSpeed="0.00" departDelay="6.00" arrival="54141.00" arrivalLane="-road2_0" arrivalPos="66.23" arrivalSpeed="13.18" duration="15.00" routeLength="125.99" waitSteps="0" timeLoss="5.12" rerouteNo="0" devices="tripinfo_type3.6" vType="CarB" speedFactor="1.00" vaporized=""/>
    <tripinfo id="type8.4" depart="54108.00" departLane="road4_0" departPos="5.10" departSpeed="0.00" departDelay="28.00" arrival="54143.00" arrivalLane="road1_0" arrivalPos="199.35" arrivalSpeed="13.86" duration="35.00" routeLength="260.05" waitSteps="5" timeLoss="16.18" rerouteNo="0" devices="tripinfo_type8.4" vType="CarA" speedFactor="1.00" vaporized=""/>
    <tripinfo id="type4.5" depart="54125.00" departLane="road2_0" departPos="5.10" departSpeed="0.00" departDelay="25.00" arrival="54147.00" arrivalLane="-road4_0" arrivalPos="55.50" arrivalSpeed="13.08" duration="22.00" routeLength="127.19" waitSteps="0" timeLoss="12.59" rerouteNo="0" devices="tripinfo_type4.5" vType="CarA" speedFactor="1.00" vaporized=""/>
    <tripinfo id="type7.4" depart="54117.00" departLane="road2_0" departPos="5.60" departSpeed="0.00" departDelay="37.00" arrival="54148.00" arrivalLane="road1_0" arrivalPos="199.35" arrivalSpeed="12.78" duration="31.00" routeLength="265.57" waitSteps="0" timeLoss="11.21" rerouteNo="0" devices="tripinfo_type7.4" vType="CarB" speedFactor="1.00" vaporized=""/>
    <tripinfo id="type10.4" depart="54121.00" departLane="road2_0" departPos="5.60" departSpeed="0.00" departDelay="41.00" arrival="54150.00" arrivalLane="-road3_0" arrivalPos="107.12" arrivalSpeed="13.34" duration="29.00" routeLength="178.79" waitSteps="0" timeLoss="15.18" rerouteNo="0" devices="tripinfo_type10.4" vType="CarB" speedFactor="1.00" vaporized=""/>
    <tripinfo id="type8.5" depart="54119.00" departLane="road4_0" departPos="5.10" departSpeed="0.00" departDelay="19.00" arrival="54152.00" arrivalLane="road1_0" arrivalPos="199.35" arrivalSpeed="11.23" duration="33.00" routeLength="260.05" waitSteps="2" timeLoss="14.24" rerouteNo="0" devices="tripinfo_type8.5" vType="CarA" speedFactor="1.00" vaporized=""/>
    <tripinfo id="type9.6" depart="54132.00" departLane="road4_0" departPos="5.10" departSpeed="0.00" departDelay="12.00" arrival="54154.00" arrivalLane="-road3_0" arrivalPos="107.12" arrivalSpeed="12.62" duration="22.00" routeLength="162.78" waitSteps="1" timeLoss="10.17" rerouteNo="0" devices="tripinfo_type9.6" vType="CarA" speedFactor="1.00" vaporized=""/>
    <tripinfo id="type4.6" depart="54137.00" departLane="road2_0" departPos="5.10" departSpeed="0.00" departDelay="17.00" arrival="54155.00" arrivalLane="-road4_0" arrivalPos="55.50" arrivalSpeed="11.29" duration="18.00" routeLength="127.19" waitSteps="0" timeLoss="8.57" rerouteNo="0" devices="tripinfo_type4.6" vType="CarA" speedFactor="1.00" vaporized=""/>
    <tripinfo id="type3.7" depart="54140.00" departLane="road4_0" departPos="5.60" departSpeed="0.00" departDelay="0.00" arrival="54157.00" arrivalLane="-road2_0" arrivalPos="66.23" arrivalSpeed="12.45" duration="17.00" routeLength="125.99" waitSteps="0" timeLoss="7.04" rerouteNo="0" devices="tripinfo_type3.7" vType="CarB" speedFactor="1.00" vaporized=""/>
    <tripinfo id="type10.5" depart="54133.00" departLane="road2_0" departPos="5.60" departSpeed="0.00" departDelay="33.00" arrival="54159.00" arrivalLane="-road3_0" arrivalPos="107.12" arrivalSpeed="12.74" duration="26.00" routeLength="178.79" waitSteps="0" timeLoss="12.73" rerouteNo="0" devices="tripinfo_type10.5" vType="CarB" speedFactor="1.00" vaporized=""/>
    <tripinfo id="type7.5" depart="54129.00" departLane="road2_0" departPos="5.60" departSpeed="0.00" departDelay="29.00" arrival="54161.00" arrivalLane="road1_0" arrivalPos="199.35" arrivalSpeed="12.12" duration="32.00" routeLength="265.57" waitSteps="0" timeLoss="12.73" rerouteNo="0" devices="tripinfo_type7.5" vType="CarB" speedFactor="1.00" vaporized=""/>
    <tripinfo id="type4.7" depart="54149.00" departLane="road2_0" departPos="5.10" departSpeed="0.00" departDelay="9.00" arrival="54164.00" arrivalLane="-road4_0" arrivalPos="55.50" arrivalSpeed="12.03" duration="15.00" routeLength="127.19" waitSteps="0" timeLoss="5.83" rerouteNo="0" devices="tripinfo_type4.7" vType="CarA" speedFactor="1.00" vaporized=""/>
    <tripinfo id="type9.7" depart="54147.00" departLane="road4_0" departPos="5.10" departSpeed="0.00" departDelay="7.00" arrival="54165.00" arrivalLane="-road3_0" arrivalPos="107.12" arrivalSpeed="12.77" duration="18.00" routeLength="162.78" waitSteps="0" timeLoss="5.80" rerouteNo="0" devices="tripinfo_type9.7" vType="CarA" speedFactor="1.00" vaporized=""/>
    <tripinfo id="type8.6" depart="54129.00" departLane="road4_0" departPos="5.10" departSpeed="0.00" departDelay="9.00" arrival="54166.00" arrivalLane="road1_0" arrivalPos="199.35" arrivalSpeed="11.60" duration="37.00" routeLength="260.05" waitSteps="3" timeLoss="17.87" rerouteNo="0" devices="tripinfo_type8.6" vType="CarA" speedFactor="1.00" vaporized=""/>
    <tripinfo id="type7.6" depart="54141.00" departLane="road2_0" departPos="5.60" departSpeed="0.00" departDelay="21.00" arrival="54168.00" arrivalLane="road1_0" arrivalPos="199.35" arrivalSpeed="13.74" duration="27.00" routeLength="265.57" waitSteps="0" timeLoss="7.11" rerouteNo="0" devices="tripinfo_type7.6" vType="CarB" speedFactor="1.00" vaporized=""/>
    <tripinfo id="type10.6" depart="54145.00" departLane="road2_0" departPos="5.60" departSpeed="0.00" departDelay="25.00" arrival="54168.00" arrivalLane="-road3_0" arrivalPos="107.12" arrivalSpeed="13.27" duration="23.00" routeLength="178.79" waitSteps="0" timeLoss="9.37" rerouteNo="0" devices="tripinfo_type10.6" vType="CarB" speedFactor="1.00" vaporized=""/>
    <tripinfo id="type8.7" depart="54144.00" departLane="road4_0" departPos="5.10" departSpeed="0.00" departDelay="4.00" arrival="54173.00" arrivalLane="road1_0" arrivalPos="199.35" arrivalSpeed="11.96" duration="29.00" routeLength="260.05" waitSteps="1" timeLoss="9.79" rerouteNo="0" devices="tripinfo_type8.7" vType="CarA" speedFactor="1.00" vaporized=""/>
    <tripinfo id="type3.8" depart="54160.00" departLane="road4_0" departPos="5.60" departSpeed="0.00" departDelay="0.00" arrival="54175.00" arrivalLane="-road2_0" arrivalPos="66.23" arrivalSpeed="12.49" duration="15.00" routeLength="125.99" waitSteps="0" timeLoss="5.88" rerouteNo="0" devices="tripinfo_type3.8" vType="CarB" speedFactor="1.00" vaporized=""/>
    <tripinfo id="type4.8" depart="54162.00" departLane="road2_0" departPos="5.10" departSpeed="0.00" departDelay="2.00" arrival="54177.00" arrivalLane="-road4_0" arrivalPos="55.50" arrivalSpeed="13.03" duration="15.00" routeLength="127.19" waitSteps="0" timeLoss="5.57" rerouteNo="0" devices="tripinfo_type4.8" vType="CarA" speedFactor="1.00" vaporized=""/>
    <tripinfo id="type7.7" depart="54154.00" departLane="road2_0" departPos="5.60" departSpeed="0.00" departDelay="14.00" arrival="54179.00" arrivalLane="road1_0" arrivalPos="199.35" arrivalSpeed="13.41" duration="25.00" routeLength="265.57" waitSteps="0" timeLoss="5.34" rerouteNo="0" devices="tripinfo_type7.7" vType="CarB" speedFactor="1.00" vaporized=""/>
    <tripinfo id="type10.7" depart="54158.00" departLane="road2_0" departPos="5.60" departSpeed="0.00" departDelay="18.00" arrival="54184.00" arrivalLane="-road3_0" arrivalPos="107.12" arrivalSpeed="13.20" duration="26.00" routeLength="178.79" waitSteps="0" timeLoss="12.31" rerouteNo="0" devices="tripinfo_type10.7" vType="CarB" speedFactor="1.00" vaporized=""/>
    <tripinfo id="type6.3" depart="54067.00" departLane="-road1_0" departPos="5.60" departSpeed="0.00" departDelay="7.00" arrival="54190.00" arrivalLane="-road4_0" arrivalPos="55.50" arrivalSpeed="12.36" duration="123.00" routeLength="254.62" waitSteps="90" timeLoss="104.13" rerouteNo="0" devices="tripinfo_type6.3" vType="CarB" speedFactor="1.00" vaporized=""/>
    <tripinfo id="type1.3" depart="54060.00" departLane="-road1_0" departPos="5.10" departSpeed="0.00" departDelay="0.00" arrival="54191.00" arrivalLane="-road3_0" arrivalPos="107.12" arrivalSpeed="11.50" duration="131.00" routeLength="311.07" waitSteps="95" timeLoss="108.10" rerouteNo="0" devices="tripinfo_type1.3" vType="CarA" speedFactor="1.00" vaporized=""/>
    <tripinfo id="type5.3" depart="54064.00" departLane="-road1_0" departPos="5.10" departSpeed="0.00" departDelay="4.00" arrival="54191.00" arrivalLane="-road2_0" arrivalPos="66.23" arrivalSpeed="12.91" duration="127.00" routeLength="270.96" waitSteps="94" timeLoss="106.55" rerouteNo="0" devices="tripinfo_type5.3" vType="CarA" speedFactor="1.00" vaporized=""/>
    <tripinfo id="type8.8" depart="54164.00" departLane="road4_0" departPos="5.10" departSpeed="0.00" departDelay="4.00" arrival="54193.00" arrivalLane="road1_0" arrivalPos="199.35" arrivalSpeed="13.58" duration="29.00" routeLength="260.05" waitSteps="0" timeLoss="10.10" rerouteNo="0" devices="tripinfo_type8.8" vType="CarA" speedFactor="1.00" vaporized=""/>
    <tripinfo id="type11.3" depart="54064.00" departLane="road3_0" departPos="5.60" departSpeed="0.00" departDelay="4.00" arrival="54195.00" arrivalLane="-road2_0" arrivalPos="66.23" arrivalSpeed="11.15" duration="131.00" routeLength="172.92" waitSteps="98" timeLoss="118.22" rerouteNo="0" devices="tripinfo_type11.3" vType="CarB" speedFactor="1.00" vaporized=""/>
    <tripinfo id="type1.4" depart="54080.00" departLane="-road1_0" departPos="5.10" departSpeed="0.00" departDelay="0.00" arrival="54196.00" arrivalLane="-road3_0" arrivalPos="107.12" arrivalSpeed="13.17" duration="116.00" routeLength="311.07" waitSteps="82" timeLoss="93.09" rerouteNo="0" devices="tripinfo_type1.4" vType="CarA" speedFactor="1.00" vaporized=""/>
    <tripinfo id="type5.4" depart="54083.00" departLane="-road1_0" departPos="5.10" departSpeed="0.00" departDelay="3.00" arrival="54197.00" arrivalLane="-road2_0" arrivalPos="66.23" arrivalSpeed="12.92" duration="114.00" routeLength="270.96" waitSteps="78" timeLoss="94.27" rerouteNo="0" devices="tripinfo_type5.4" vType="CarA" speedFactor="1.00" vaporized=""/>
    <tripinfo id="type6.4" depart="54086.00" departLane="-road1_0" departPos="5.60" departSpeed="0.00" departDelay="6.00" arrival="54197.00" arrivalLane="-road4_0" arrivalPos="55.50" arrivalSpeed="13.80" duration="111.00" routeLength="254.62" waitSteps="77" timeLoss="91.98" rerouteNo="0" devices="tripinfo_type6.4" vType="CarB" speedFactor="1.00" vaporized=""/>
    <tripinfo id="type2.3" depart="54060.00" departLane="road3_0" departPos="5.60" departSpeed="0.00" departDelay="0.00" arrival="54200.00" arrivalLane="road1_0" arrivalPos="199.35" arrivalSpeed="13.81" duration="140.00" routeLength="310.49" waitSteps="102" timeLoss="116.96" rerouteNo="0" devices="tripinfo_type2.3" vType="CarB" speedFactor="1.00" vaporized=""/>
    <tripinfo id="type6.5" depart="54107.00" departLane="-road1_0" departPos="5.60" departSpeed="0.00" departDelay="7.00" arrival="54202.00" arrivalLane="-road4_0" arrivalPos="55.50" arrivalSpeed="12.76" duration="95.00" routeLength="254.62" waitSteps="62" timeLoss="76.52" rerouteNo="0" devices="tripinfo_type6.5" vType="CarB" speedFactor="1.00" vaporized=""/>
    <tripinfo id="type11.4" depart="54084.00" departLane="road3_0" departPos="5.60" departSpeed="0.00" departDelay="4.00" arrival="54203.00" arrivalLane="-road2_0" arrivalPos="66.23" arrivalSpeed="4.42" duration="119.00" routeLength="172.92" waitSteps="83" timeLoss="111.08" rerouteNo="0" devices="tripinfo_type11.4" vType="CarB" speedFactor="1.00" vaporized=""/>
    <tripinfo id="type1.5" depart="54100.00" departLane="-road1_0" departPos="5.10" departSpeed="0.00" departDelay="0.00" arrival="54204.00" arrivalLane="-road3_0" arrivalPos="107.12" arrivalSpeed="11.64" duration="104.00" routeLength="311.07" waitSteps="65" timeLoss="80.82" rerouteNo="0" devices="tripinfo_type1.5" vType="CarA" speedFactor="1.00" vaporized=""/>