<?xml version="1.0" encoding="UTF-8"?>

<!-- generated on 04/24/18 19:25:43 by SUMO Version 0.32.0
<?xml version="1.0" encoding="UTF-8"?>

<configuration xmlns:xsi="http://www.w3.org/2001/XMLSchema-instance" xsi:noNamespaceSchemaLocation="http://sumo.dlr.de/xsd/sumoConfiguration.xsd">

    <input>
        <net-file value="..\..\test_environments\single_intersection_map\newnet.net.xml"/>
        <route-files value="..\..\test_environments\single_intersection_map\newnet.rou.xml"/>
    </input>

    <output>
        <tripinfo-output value="tripinfo.xml"/>
    </output>

    <time>
        <begin value="0"/>
        <end value="10000"/>
    </time>

    <processing>
        <time-to-teleport value="-1"/>
    </processing>

    <traci_server>
        <remote-port value="15466"/>
    </traci_server>

</configuration>
-->

<tripinfos xmlns:xsi="http://www.w3.org/2001/XMLSchema-instance" xsi:noNamespaceSchemaLocation="http://sumo.dlr.de/xsd/tripinfo_file.xsd">
    <tripinfo id="type11.0" depart="3.00" departLane="road3_0" departPos="5.60" departSpeed="0.00" departDelay="3.00" arrival="22.00" arrivalLane="-road2_0" arrivalPos="66.23" arrivalSpeed="12.26" duration="19.00" routeLength="172.92" waitSteps="0" timeLoss="6.32" rerouteNo="0" devices="tripinfo_type11.0" vType="CarB" speedFactor="1.00" vaporized=""/>
    <tripinfo id="type2.0" depart="0.00" departLane="road3_0" departPos="5.60" departSpeed="0.00" departDelay="0.00" arrival="28.00" arrivalLane="road1_0" arrivalPos="199.35" arrivalSpeed="13.53" duration="28.00" routeLength="310.49" waitSteps="0" timeLoss="5.14" rerouteNo="0" devices="tripinfo_type2.0" vType="CarB" speedFactor="1.00" vaporized=""/>
    <tripinfo id="type12.0" depart="7.00" departLane="road3_0" departPos="5.10" departSpeed="0.00" departDelay="7.00" arrival="28.00" arrivalLane="-road4_0" arrivalPos="55.50" arrivalSpeed="11.26" duration="21.00" routeLength="168.41" waitSteps="0" timeLoss="8.60" rerouteNo="0" devices="tripinfo_type12.0" vType="CarA" speedFactor="1.00" vaporized=""/>
    <tripinfo id="type5.0" depart="4.00" departLane="-road1_0" departPos="5.10" departSpeed="0.00" departDelay="4.00" arrival="29.00" arrivalLane="-road2_0" arrivalPos="66.23" arrivalSpeed="11.91" duration="25.00" routeLength="270.96" waitSteps="0" timeLoss="5.14" rerouteNo="0" devices="tripinfo_type5.0" vType="CarA" speedFactor="1.00" vaporized=""/>
    <tripinfo id="type1.0" depart="0.00" departLane="-road1_0" departPos="5.10" departSpeed="0.00" departDelay="0.00" arrival="30.00" arrivalLane="-road3_0" arrivalPos="107.12" arrivalSpeed="11.76" duration="30.00" routeLength="311.07" waitSteps="0" timeLoss="7.28" rerouteNo="0" devices="tripinfo_type1.0" vType="CarA" speedFactor="1.00" vaporized=""/>
    <tripinfo id="type6.0" depart="7.00" departLane="-road1_0" departPos="5.60" departSpeed="0.00" departDelay="7.00" arrival="32.00" arrivalLane="-road4_0" arrivalPos="55.50" arrivalSpeed="12.15" duration="25.00" routeLength="254.62" waitSteps="0" timeLoss="5.88" rerouteNo="0" devices="tripinfo_type6.0" vType="CarB" speedFactor="1.00" vaporized=""/>
    <tripinfo id="type11.1" depart="24.00" departLane="road3_0" departPos="5.60" departSpeed="0.00" departDelay="4.00" arrival="43.00" arrivalLane="-road2_0" arrivalPos="66.23" arrivalSpeed="12.42" duration="19.00" routeLength="172.92" waitSteps="0" timeLoss="6.47" rerouteNo="0" devices="tripinfo_type11.1" vType="CarB" speedFactor="1.00" vaporized=""/>
    <tripinfo id="type5.1" depart="22.00" departLane="-road1_0" departPos="5.10" departSpeed="0.00" departDelay="2.00" arrival="48.00" arrivalLane="-road2_0" arrivalPos="66.23" arrivalSpeed="13.58" duration="26.00" routeLength="270.96" waitSteps="0" timeLoss="5.65" rerouteNo="0" devices="tripinfo_type5.1" vType="CarA" speedFactor="1.00" vaporized=""/>
    <tripinfo id="type1.1" depart="20.00" departLane="-road1_0" departPos="5.10" departSpeed="0.00" departDelay="0.00" arrival="48.00" arrivalLane="-road3_0" arrivalPos="107.12" arrivalSpeed="13.14" duration="28.00" routeLength="311.07" waitSteps="0" timeLoss="4.71" rerouteNo="0" devices="tripinfo_type1.1" vType="CarA" speedFactor="1.00" vaporized=""/>
    <tripinfo id="type12.1" depart="28.00" departLane="road3_0" departPos="5.10" departSpeed="0.00" departDelay="8.00" arrival="48.00" arrivalLane="-road4_0" arrivalPos="55.50" arrivalSpeed="11.34" duration="20.00" routeLength="168.41" waitSteps="0" timeLoss="7.87" rerouteNo="0" devices="tripinfo_type12.1" vType="CarA" speedFactor="1.00" vaporized=""/>
    <tripinfo id="type2.1" depart="20.00" departLane="road3_0" departPos="5.60" departSpeed="0.00" departDelay="0.00" arrival="50.00" arrivalLane="road1_0" arrivalPos="199.35" arrivalSpeed="12.97" duration="30.00" routeLength="310.49" waitSteps="0" timeLoss="7.60" rerouteNo="0" devices="tripinfo_type2.1" vType="CarB" speedFactor="1.00" vaporized=""/>
    <tripinfo id="type6.1" depart="26.00" departLane="-road1_0" departPos="5.60" departSpeed="0.00" departDelay="6.00" arrival="52.00" arrivalLane="-road4_0" arrivalPos="55.50" arrivalSpeed="12.64" duration="26.00" routeLength="254.62" waitSteps="0" timeLoss="7.66" rerouteNo="0" devices="tripinfo_type6.1" vType="CarB" speedFactor="1.00" vaporized=""/>
    <tripinfo id="type11.2" depart="44.00" departLane="road3_0" departPos="5.60" departSpeed="0.00" departDelay="4.00" arrival="63.00" arrivalLane="-road2_0" arrivalPos="66.23" arrivalSpeed="13.02" duration="19.00" routeLength="172.92" waitSteps="0" timeLoss="5.90" rerouteNo="0" devices="tripinfo_type11.2" vType="CarB" speedFactor="1.00" vaporized=""/>
    <tripinfo id="type12.2" depart="49.00" departLane="road3_0" departPos="5.10" departSpeed="0.00" departDelay="9.00" arrival="67.00" arrivalLane="-road4_0" arrivalPos="55.50" arrivalSpeed="13.53" duration="18.00" routeLength="168.41" waitSteps="0" timeLoss="5.87" rerouteNo="0" devices="tripinfo_type12.2" vType="CarA" speedFactor="1.00" vaporized=""/>
    <tripinfo id="type1.2" depart="40.00" departLane="-road1_0" departPos="5.10" departSpeed="0.00" departDelay="0.00" arrival="69.00" arrivalLane="-road3_0" arrivalPos="107.12" arrivalSpeed="13.43" duration="29.00" routeLength="311.07" waitSteps="0" timeLoss="5.80" rerouteNo="0" devices="tripinfo_type1.2" vType="CarA" speedFactor="1.00" vaporized=""/>
    <tripinfo id="type2.2" depart="40.00" departLane="road3_0" departPos="5.60" departSpeed="0.00" departDelay="0.00" arrival="70.00" arrivalLane="road1_0" arrivalPos="199.35" arrivalSpeed="13.26" duration="30.00" routeLength="310.49" waitSteps="0" timeLoss="7.63" rerouteNo="0" devices="tripinfo_type2.2" vType="CarB" speedFactor="1.00" vaporized=""/>
    <tripinfo id="type5.2" depart="44.00" departLane="-road1_0" departPos="5.10" departSpeed="0.00" departDelay="4.00" arrival="72.00" arrivalLane="-road2_0" arrivalPos="66.23" arrivalSpeed="13.23" duration="28.00" routeLength="270.96" waitSteps="0" timeLoss="8.13" rerouteNo="0" devices="tripinfo_type5.2" vType="CarA" speedFactor="1.00" vaporized=""/>
    <tripinfo id="type4.0" depart="0.00" departLane="road2_0" departPos="5.10" departSpeed="0.00" departDelay="0.00" arrival="380.00" arrivalLane="-road4_0" arrivalPos="55.50" arrivalSpeed="13.50" duration="380.00" routeLength="127.19" waitSteps="358" timeLoss="370.57" rerouteNo="0" devices="tripinfo_type4.0" vType="CarA" speedFactor="1.00" vaporized=""/>
    <tripinfo id="type3.0" depart="0.00" departLane="road4_0" departPos="5.60" departSpeed="0.00" departDelay="0.00" arrival="381.00" arrivalLane="-road2_0" arrivalPos="66.23" arrivalSpeed="11.78" duration="381.00" routeLength="125.99" waitSteps="357" timeLoss="371.92" rerouteNo="0" devices="tripinfo_type3.0" vType="CarB" speedFactor="1.00" vaporized=""/>
    <tripinfo id="type3.1" depart="20.00" departLane="road4_0" departPos="5.60" departSpeed="0.00" departDelay="0.00" arrival="390.00" arrivalLane="-road2_0" arrivalPos="66.23" arrivalSpeed="12.31" duration="370.00" routeLength="125.99" waitSteps="346" timeLoss="360.87" rerouteNo="0" devices="tripinfo_type3.1" vType="CarB" speedFactor="1.00" vaporized=""/>
    <tripinfo id="type9.0" depart="7.00" departLane="road4_0" departPos="5.10" departSpeed="0.00" departDelay="7.00" arrival="392.00" arrivalLane="-road3_0" arrivalPos="107.12" arrivalSpeed="13.35" duration="385.00" routeLength="162.78" waitSteps="355" timeLoss="372.34" rerouteNo="0" devices="tripinfo_type9.0" vType="CarA" speedFactor="1.00" vaporized=""/>
    <tripinfo id="type7.0" depart="3.00" departLane="road2_0" departPos="5.60" departSpeed="0.00" departDelay="3.00" arrival="393.00" arrivalLane="road1_0" arrivalPos="199.35" arrivalSpeed="13.73" duration="390.00" routeLength="265.57" waitSteps="357" timeLoss="370.82" rerouteNo="0" devices="tripinfo_type7.0" vType="CarB" speedFactor="1.00" vaporized=""/>
    <tripinfo id="type3.2" depart="40.00" departLane="road4_0" departPos="5.60" departSpeed="0.00" departDelay="0.00" arrival="396.00" arrivalLane="-road2_0" arrivalPos="66.23" arrivalSpeed="13.81" duration="356.00" routeLength="125.99" waitSteps="334" timeLoss="346.56" rerouteNo="0" devices="tripinfo_type3.2" vType="CarB" speedFactor="1.00" vaporized=""/>
    <tripinfo id="type8.0" depart="4.00" departLane="road4_0" departPos="5.10" departSpeed="0.00" departDelay="4.00" arrival="397.00" arrivalLane="road1_0" arrivalPos="199.35" arrivalSpeed="13.53" duration="393.00" routeLength="260.05" waitSteps="354" timeLoss="374.21" rerouteNo="0" devices="tripinfo_type8.0" vType="CarA" speedFactor="1.00" vaporized=""/>
    <tripinfo id="type9.1" depart="27.00" departLane="road4_0" departPos="5.10" departSpeed="0.00" departDelay="7.00" arrival="397.00" arrivalLane="-road3_0" arrivalPos="107.12" arrivalSpeed="13.47" duration="370.00" routeLength="162.78" waitSteps="343" timeLoss="357.52" rerouteNo="0" devices="tripinfo_type9.1" vType="CarA" speedFactor="1.00" vaporized=""/>
    <tripinfo id="type4.1" depart="20.00" departLane="road2_0" departPos="5.10" departSpeed="0.00" departDelay="0.00" arrival="401.00" arrivalLane="-road4_0" arrivalPos="55.50" arrivalSpeed="13.89" duration="381.00" routeLength="127.19" waitSteps="350" timeLoss="371.19" rerouteNo="0" devices="tripinfo_type4.1" vType="CarA" speedFactor="1.00" vaporized=""/>
    <tripinfo id="type8.1" depart="23.00" departLane="road4_0" departPos="5.10" departSpeed="0.00" departDelay="3.00" arrival="402.00" arrivalLane="road1_0" arrivalPos="199.35" arrivalSpeed="12.24" duration="379.00" routeLength="260.05" waitSteps="346" timeLoss="360.05" rerouteNo="0" devices="tripinfo_type8.1" vType="CarA" speedFactor="1.00" vaporized=""/>
    <tripinfo id="type10.0" depart="7.00" departLane="road2_0" departPos="5.60" departSpeed="0.00" departDelay="7.00" arrival="405.00" arrivalLane="-road3_0" arrivalPos="107.12" arrivalSpeed="12.72" duration="398.00" routeLength="178.79" waitSteps="364" timeLoss="384.87" rerouteNo="0" devices="tripinfo_type10.0" vType="CarB" speedFactor="1.00" vaporized=""/>
    <tripinfo id="type9.2" depart="388.00" departLane="road4_0" departPos="5.10" departSpeed="0.00" departDelay="348.00" arrival="413.00" arrivalLane="-road3_0" arrivalPos="107.12" arrivalSpeed="11.90" duration="25.00" routeLength="162.78" waitSteps="0" timeLoss="12.92" rerouteNo="0" devices="tripinfo_type9.2" vType="CarA" speedFactor="1.00" vaporized=""/>
    <tripinfo id="type3.3" depart="392.00" departLane="road4_0" departPos="5.60" departSpeed="0.00" departDelay="332.00" arrival="415.00" arrivalLane="-road2_0" arrivalPos="66.23" arrivalSpeed="12.76" duration="23.00" routeLength="125.99" waitSteps="0" timeLoss="13.82" rerouteNo="0" devices="tripinfo_type3.3" vType="CarB" speedFactor="1.00" vaporized=""/>
    <tripinfo id="type7.1" depart="23.00" departLane="road2_0" departPos="5.60" departSpeed="0.00" departDelay="3.00" arrival="416.00" arrivalLane="road1_0" arrivalPos="199.35" arrivalSpeed="13.88" duration="393.00" routeLength="265.57" waitSteps="348" timeLoss="373.09" rerouteNo="0" devices="tripinfo_type7.1" vType="CarB" speedFactor="1.00" vaporized=""/>
    <tripinfo id="type8.2" depart="383.00" departLane="road4_0" departPos="5.10" departSpeed="0.00" departDelay="343.00" arrival="418.00" arrivalLane="road1_0" arrivalPos="199.35" arrivalSpeed="13.53" duration="35.00" routeLength="260.05" waitSteps="3" timeLoss="16.02" rerouteNo="0" devices="tripinfo_type8.2" vType="CarA" speedFactor="1.00" vaporized=""/>
    <tripinfo id="type4.2" depart="40.00" departLane="road2_0" departPos="5.10" departSpeed="0.00" departDelay="0.00" arrival="420.00" arrivalLane="-road4_0" arrivalPos="55.50" arrivalSpeed="12.07" duration="380.00" routeLength="127.19" waitSteps="336" timeLoss="370.30" rerouteNo="0" devices="tripinfo_type4.2" vType="CarA" speedFactor="1.00" vaporized=""/>
    <tripinfo id="type10.1" depart="27.00" departLane="road2_0" departPos="5.60" departSpeed="0.00" departDelay="7.00" arrival="423.00" arrivalLane="-road3_0" arrivalPos="107.12" arrivalSpeed="13.07" duration="396.00" routeLength="178.79" waitSteps="350" timeLoss="382.81" rerouteNo="0" devices="tripinfo_type10.1" vType="CarB" speedFactor="1.00" vaporized=""/>
    <tripinfo id="type9.3" depart="400.00" departLane="road4_0" departPos="5.10" departSpeed="0.00" departDelay="340.00" arrival="432.00" arrivalLane="-road3_0" arrivalPos="107.12" arrivalSpeed="11.43" duration="32.00" routeLength="162.78" waitSteps="3" timeLoss="19.48" rerouteNo="0" devices="tripinfo_type9.3" vType="CarA" speedFactor="1.00" vaporized=""/>
    <tripinfo id="type3.4" depart="404.00" departLane="road4_0" departPos="5.60" departSpeed="0.00" departDelay="324.00" arrival="432.00" arrivalLane="-road2_0" arrivalPos="66.23" arrivalSpeed="12.84" duration="28.00" routeLength="125.99" waitSteps="1" timeLoss="18.70" rerouteNo="0" devices="tripinfo_type3.4" vType="CarB" speedFactor="1.00" vaporized=""/>
    <tripinfo id="type7.2" depart="44.00" departLane="road2_0" departPos="5.60" departSpeed="0.00" departDelay="4.00" arrival="433.00" arrivalLane="road1_0" arrivalPos="199.35" arrivalSpeed="12.73" duration="389.00" routeLength="265.57" waitSteps="335" timeLoss="369.85" rerouteNo="0" devices="tripinfo_type7.2" vType="CarB" speedFactor="1.00" vaporized=""/>
    <tripinfo id="type8.3" depart="396.00" departLane="road4_0" departPos="5.10" departSpeed="0.00" departDelay="336.00" arrival="438.00" arrivalLane="road1_0" arrivalPos="199.35" arrivalSpeed="12.27" duration="42.00" routeLength="260.05" waitSteps="6" timeLoss="22.73" rerouteNo="0" devices="tripinfo_type8.3" vType="CarA" speedFactor="1.00" vaporized=""/>
    <tripinfo id="type9.4" depart="411.00" departLane="road4_0" departPos="5.10" departSpeed="0.00" departDelay="331.00" arrival="439.00" arrivalLane="-road3_0" arrivalPos="107.12" arrivalSpeed="11.76" duration="28.00" routeLength="162.78" waitSteps="0" timeLoss="16.08" rerouteNo="0" devices="tripinfo_type9.4" vType="CarA" speedFactor="1.00" vaporized=""/>
    <tripinfo id="type3.5" depart="414.00" departLane="road4_0" departPos="5.60" departSpeed="0.00" departDelay="314.00" arrival="439.00" arrivalLane="-road2_0" arrivalPos="66.23" arrivalSpeed="13.03" duration="25.00" routeLength="125.99" waitSteps="1" timeLoss="15.32" rerouteNo="0" devices="tripinfo_type3.5" vType="CarB" speedFactor="1.00" vaporized=""/>
    <tripinfo id="type4.3" depart="388.00" departLane="road2_0" departPos="5.10" departSpeed="0.00" departDelay="328.00" arrival="444.00" arrivalLane="-road4_0" arrivalPos="55.50" arrivalSpeed="13.29" duration="56.00" routeLength="127.19" waitSteps="7" timeLoss="46.76" rerouteNo="0" devices="tripinfo_type4.3" vType="CarA" speedFactor="1.00" vaporized=""/>
    <tripinfo id="type8.4" depart="408.00" departLane="road4_0" departPos="5.10" departSpeed="0.00" departDelay="328.00" arrival="445.00" arrivalLane="road1_0" arrivalPos="199.35" arrivalSpeed="12.81" duration="37.00" routeLength="260.05" waitSteps="1" timeLoss="17.88" rerouteNo="0" devices="tripinfo_type8.4" vType="CarA" speedFactor="1.00" vaporized=""/>
    <tripinfo id="type10.2" depart="384.00" departLane="road2_0" departPos="5.60" departSpeed="0.00" departDelay="344.00" arrival="448.00" arrivalLane="-road3_0" arrivalPos="107.12" arrivalSpeed="12.74" duration="64.00" routeLength="178.79" waitSteps="14" timeLoss="51.05" rerouteNo="0" devices="tripinfo_type10.2" vType="CarB" speedFactor="1.00" vaporized=""/>
    <tripinfo id="type3.6" depart="430.00" departLane="road4_0" departPos="5.60" departSpeed="0.00" departDelay="310.00" arrival="455.00" arrivalLane="-road2_0" arrivalPos="66.23" arrivalSpeed="12.15" duration="25.00" routeLength="125.99" waitSteps="2" timeLoss="15.91" rerouteNo="0" devices="tripinfo_type3.6" vType="CarB" speedFactor="1.00" vaporized=""/>
    <tripinfo id="type7.3" depart="394.00" departLane="road2_0" departPos="5.60" departSpeed="0.00" departDelay="334.00" arrival="457.00" arrivalLane="road1_0" arrivalPos="199.35" arrivalSpeed="13.37" duration="63.00" routeLength="265.57" waitSteps="5" timeLoss="43.85" rerouteNo="0" devices="tripinfo_type7.3" vType="CarB" speedFactor="1.00" vaporized=""/>
    <tripinfo id="type9.5" depart="422.00" departLane="road4_0" departPos="5.10" departSpeed="0.00" departDelay="322.00" arrival="458.00" arrivalLane="-road3_0" arrivalPos="107.12" arrivalSpeed="11.41" duration="36.00" routeLength="162.78" waitSteps="2" timeLoss="23.59" rerouteNo="0" devices="tripinfo_type9.5" vType="CarA" speedFactor="1.00" vaporized=""/>
    <tripinfo id="type4.4" depart="410.00" departLane="road2_0" departPos="5.10" departSpeed="0.00" departDelay="330.00" arrival="458.00" arrivalLane="-road4_0" arrivalPos="55.50" arrivalSpeed="12.74" duration="48.00" routeLength="127.19" waitSteps="8" timeLoss="38.50" rerouteNo="0" devices="tripinfo_type4.4" vType="CarA" speedFactor="1.00" vaporized=""/>
    <tripinfo id="type8.5" depart="418.00" departLane="road4_0" departPos="5.10" departSpeed="0.00" departDelay="318.00" arrival="461.00" arrivalLane="road1_0" arrivalPos="199.35" arrivalSpeed="13.61" duration="43.00" routeLength="260.05" waitSteps="5" timeLoss="23.66" rerouteNo="0" devices="tripinfo_type8.5" vType="CarA" speedFactor="1.00" vaporized=""/>
    <tripinfo id="type10.3" depart="407.00" departLane="road2_0" departPos="5.60" departSpeed="0.00" departDelay="347.00" arrival="463.00" arrivalLane="-road3_0" arrivalPos="107.12" arrivalSpeed="12.30" duration="56.00" routeLength="178.79" waitSteps="11" timeLoss="42.70" rerouteNo="0" devices="tripinfo_type10.3" vType="CarB" speedFactor="1.00" vaporized=""/>
    <tripinfo id="type9.6" depart="438.00" departLane="road4_0" departPos="5.10" departSpeed="0.00" departDelay="318.00" arrival="470.00" arrivalLane="-road3_0" arrivalPos="107.12" arrivalSpeed="13.17" duration="32.00" routeLength="162.78" waitSteps="0" timeLoss="19.80" rerouteNo="0" devices="tripinfo_type9.6" vType="CarA" speedFactor="1.00" vaporized=""/>
    <tripinfo id="type7.4" depart="414.00" departLane="road2_0" departPos="5.60" departSpeed="0.00" departDelay="334.00" arrival="473.00" arrivalLane="road1_0" arrivalPos="199.35" arrivalSpeed="13.21" duration="59.00" routeLength="265.57" waitSteps="6" timeLoss="39.57" rerouteNo="0" devices="tripinfo_type7.4" vType="CarB" speedFactor="1.00" vaporized=""/>
    <tripinfo id="type3.7" depart="441.00" departLane="road4_0" departPos="5.60" departSpeed="0.00" departDelay="301.00" arrival="474.00" arrivalLane="-road2_0" arrivalPos="66.23" arrivalSpeed="13.09" duration="33.00" routeLength="125.99" waitSteps="0" timeLoss="23.27" rerouteNo="0" devices="tripinfo_type3.7" vType="CarB" speedFactor="1.00" vaporized=""/>
    <tripinfo id="type8.6" depart="434.00" departLane="road4_0" departPos="5.10" departSpeed="0.00" departDelay="314.00" arrival="477.00" arrivalLane="road1_0" arrivalPos="199.35" arrivalSpeed="12.46" duration="43.00" routeLength="260.05" waitSteps="3" timeLoss="23.73" rerouteNo="0" devices="tripinfo_type8.6" vType="CarA" speedFactor="1.00" vaporized=""/>
    <tripinfo id="type9.7" depart="448.00" departLane="road4_0" departPos="5.10" departSpeed="0.00" departDelay="308.00" arrival="481.00" arrivalLane="-road3_0" arrivalPos="107.12" arrivalSpeed="13.20" duration="33.00" routeLength="162.78" waitSteps="0" timeLoss="20.70" rerouteNo="0" devices="tripinfo_type9.7" vType="CarA" speedFactor="1.00" vaporized=""/>
    <tripinfo id="type3.8" depart="454.00" departLane="road4_0" departPos="5.60" departSpeed="0.00" departDelay="294.00" arrival="482.00" arrivalLane="-road2_0" arrivalPos="66.23" arrivalSpeed="13.47" duration="28.00" routeLength="125.99" waitSteps="0" timeLoss="18.22" rerouteNo="0" devices="tripinfo_type3.8" vType="CarB" speedFactor="1.00" vaporized=""/>
    <tripinfo id="type8.7" depart="445.00" departLane="road4_0" departPos="5.10" departSpeed="0.00" departDelay="305.00" arrival="486.00" arrivalLane="road1_0" arrivalPos="199.35" arrivalSpeed="13.45" duration="41.00" routeLength="260.05" waitSteps="0" timeLoss="21.94" rerouteNo="0" devices="tripinfo_type8.7" vType="CarA" speedFactor="1.00" vaporized=""/>
    <tripinfo id="type9.8" depart="463.00" departLane="road4_0" departPos="5.10" departSpeed="0.00" departDelay="303.00" arrival="488.00" arrivalLane="-road3_0" arrivalPos="107.12" arrivalSpeed="11.74" duration="25.00" routeLength="162.78" waitSteps="0" timeLoss="12.67" rerouteNo="0" devices="tripinfo_type9.8" vType="CarA" speedFactor="1.00" vaporized=""/>
    <tripinfo id="type4.5" depart="431.00" departLane="road2_0" departPos="5.10" departSpeed="0.00" departDelay="331.00" arrival="491.00" arrivalLane="-road4_0" arrivalPos="55.50" arrivalSpeed="11.50" duration="60.00" routeLength="127.19" waitSteps="19" timeLoss="50.64" rerouteNo="0" devices="tripinfo_type4.5" vType="CarA" speedFactor="1.00" vaporized=""/>
    <tripinfo id="type3.9" depart="470.00" departLane="road4_0" departPos="5.60" departSpeed="0.00" departDelay="290.00" arrival="492.00" arrivalLane="-road2_0" arrivalPos="66.23" arrivalSpeed="12.99" duration="22.00" routeLength="125.99" waitSteps="0" timeLoss="12.86" rerouteNo="0" devices="tripinfo_type3.9" vType="CarB" speedFactor="1.00" vaporized=""/>
    <tripinfo id="type8.8" depart="458.00" departLane="road4_0" departPos="5.10" departSpeed="0.00" departDelay="298.00" arrival="494.00" arrivalLane="road1_0" arrivalPos="199.35" arrivalSpeed="12.32" duration="36.00" routeLength="260.05" waitSteps="0" timeLoss="16.82" rerouteNo="0" devices="tripinfo_type8.8" vType="CarA" speedFactor="1.00" vaporized=""/>
    <tripinfo id="type10.4" depart="426.00" departLane="road2_0" departPos="5.60" departSpeed="0.00" departDelay="346.00" arrival="494.00" arrivalLane="-road3_0" arrivalPos="107.12" arrivalSpeed="13.76" duration="68.00" routeLength="178.79" waitSteps="20" timeLoss="54.96" rerouteNo="0" devices="tripinfo_type10.4" vType="CarB" speedFactor="1.00" vaporized=""/>
    <tripinfo id="type9.9" depart="479.00" departLane="road4_0" departPos="5.10" departSpeed="0.00" departDelay="299.00" arrival="499.00" arrivalLane="-road3_0" arrivalPos="107.12" arrivalSpeed="13.32" duration="20.00" routeLength="162.78" waitSteps="0" timeLoss="7.53" rerouteNo="0" devices="tripinfo_type9.9" vType="CarA" speedFactor="1.00" vaporized=""/>
    <tripinfo id="type3.10" depart="483.00" departLane="road4_0" departPos="5.60" departSpeed="0.00" departDelay="283.00" arrival="499.00" arrivalLane="-road2_0" arrivalPos="66.23" arrivalSpeed="13.12" duration="16.00" routeLength="125.99" waitSteps="0" timeLoss="6.83" rerouteNo="0" devices="tripinfo_type3.10" vType="CarB" speedFactor="1.00" vaporized=""/>
    <tripinfo id="type7.5" depart="436.00" departLane="road2_0" departPos="5.60" departSpeed="0.00" departDelay="336.00" arrival="504.00" arrivalLane="road1_0" arrivalPos="199.35" arrivalSpeed="13.68" duration="68.00" routeLength="265.57" waitSteps="16" timeLoss="48.37" rerouteNo="0" devices="tripinfo_type7.5" vType="CarB" speedFactor="1.00" vaporized=""/>
    <tripinfo id="type4.6" depart="454.00" departLane="road2_0" departPos="5.10" departSpeed="0.00" departDelay="334.00" arrival="505.00" arrivalLane="-road4_0" arrivalPos="55.50" arrivalSpeed="13.48" duration="51.00" routeLength="127.19" waitSteps="9" timeLoss="41.20" rerouteNo="0" devices="tripinfo_type4.6" vType="CarA" speedFactor="1.00" vaporized=""/>
    <tripinfo id="type8.9" depart="476.00" departLane="road4_0" departPos="5.10" departSpeed="0.00" departDelay="296.00" arrival="506.00" arrivalLane="road1_0" arrivalPos="199.35" arrivalSpeed="12.37" duration="30.00" routeLength="260.05" waitSteps="0" timeLoss="11.00" rerouteNo="0" devices="tripinfo_type8.9" vType="CarA" speedFactor="1.00" vaporized=""/>
    <tripinfo id="type10.5" depart="449.00" departLane="road2_0" departPos="5.60" departSpeed="0.00" departDelay="349.00" arrival="508.00" arrivalLane="-road3_0" arrivalPos="107.12" arrivalSpeed="12.17" duration="59.00" routeLength="178.79" waitSteps="14" timeLoss="45.66" rerouteNo="0" devices="tripinfo_type10.5" vType="CarB" speedFactor="1.00" vaporized=""/>
    <tripinfo id="type10.6" depart="464.00" departLane="road2_0" departPos="5.60" departSpeed="0.00" departDelay="344.00" arrival="516.00" arrivalLane="-road3_0" arrivalPos="107.12" arrivalSpeed="13.67" duration="52.00" routeLength="178.79" waitSteps="6" timeLoss="38.34" rerouteNo="0" devices="tripinfo_type10.6" vType="CarB" speedFactor="1.00" vaporized=""/>
    <tripinfo id="type7.6" depart="457.00" departLane="road2_0" departPos="5.60" departSpeed="0.00" departDelay="337.00" arrival="519.00" arrivalLane="road1_0" arrivalPos="199.35" arrivalSpeed="12.91" duration="62.00" routeLength="265.57" waitSteps="9" timeLoss="42.49" rerouteNo="0" devices="tripinfo_type7.6" vType="CarB" speedFactor="1.00" vaporized=""/>
    <tripinfo id="type8.10" depart="487.00" departLane="road4_0" departPos="5.10" departSpeed="0.00" departDelay="287.00" arrival="522.00" arrivalLane="road1_0" arrivalPos="199.35" arrivalSpeed="12.13" duration="35.00" routeLength="260.05" waitSteps="5" timeLoss="15.88" rerouteNo="0" devices="tripinfo_type8.10" vType="CarA" speedFactor="1.00" vaporized=""/>
    <tripinfo id="type6.2" depart="48.00" departLane="-road1_0" departPos="5.60" departSpeed="0.00" departDelay="8.00" arrival="765.00" arrivalLane="-road4_0" arrivalPos="55.50" arrivalSpeed="13.21" duration="717.00" routeLength="254.62" waitSteps="682" timeLoss="697.98" rerouteNo="0" devices="tripinfo_type6.2" vType="CarB" speedFactor="1.00" vaporized=""/>
    <tripinfo id="type11.3" depart="64.00" departLane="road3_0" departPos="5.60" departSpeed="0.00" departDelay="4.00" arrival="769.00" arrivalLane="-road2_0" arrivalPos="66.23" arrivalSpeed="12.85" duration="705.00" routeLength="172.92" waitSteps="675" timeLoss="692.14" rerouteNo="0" devices="tripinfo_type11.3" vType="CarB" speedFactor="1.00" vaporized=""/>
    <tripinfo id="type1.3" depart="60.00" departLane="-road1_0" departPos="5.10" departSpeed="0.00" departDelay="0.00" arrival="771.00" arrivalLane="-road3_0" arrivalPos="107.12" arrivalSpeed="13.25" duration="711.00" routeLength="311.07" waitSteps="675" timeLoss="688.54" rerouteNo="0" devices="tripinfo_type1.3" vType="CarA" speedFactor="1.00" vaporized=""/>
    <tripinfo id="type12.3" depart="67.00" departLane="road3_0" departPos="5.10" departSpeed="0.00" departDelay="7.00" arrival="771.00" arrivalLane="-road4_0" arrivalPos="55.50" arrivalSpeed="11.78" duration="704.00" routeLength="168.41" waitSteps="675" timeLoss="691.17" rerouteNo="0" devices="tripinfo_type12.3" vType="CarA" speedFactor="1.00" vaporized=""/>
    <tripinfo id="type5.3" depart="64.00" departLane="-road1_0" departPos="5.10" departSpeed="0.00" departDelay="4.00" arrival="772.00" arrivalLane="-road2_0" arrivalPos="66.23" arrivalSpeed="13.60" duration="708.00" routeLength="270.96" waitSteps="673" timeLoss="687.68" rerouteNo="0" devices="tripinfo_type5.3" vType="CarA" speedFactor="1.00" vaporized=""/>
    <tripinfo id="type6.3" depart="67.00" departLane="-road1_0" departPos="5.60" departSpeed="0.00" departDelay="7.00" arrival="773.00" arrivalLane="-road4_0" arrivalPos="55.50" arrivalSpeed="12.78" duration="706.00" routeLength="254.62" waitSteps="670" timeLoss="687.35" rerouteNo="0" devices="tripinfo_type6.3" vType="CarB" speedFactor="1.00" vaporized=""/>
    <tripinfo id="type2.3" depart="60.00" departLane="road3_0" departPos="5.60" departSpeed="0.00" departDelay="0.00" arrival="777.00" arrivalLane="road1_0" arrivalPos="199.35" arrivalSpeed="13.46" duration="717.00" routeLength="310.49" waitSteps="680" timeLoss="694.20" rerouteNo="0" devices="tripinfo_type2.3" vType="CarB" speedFactor="1.00" vaporized=""/>
    <tripinfo id="type11.4" depart="85.00" departLane="road3_0" departPos="5.60" departSpeed="0.00" departDelay="5.00" arrival="777.00" arrivalLane="-road2_0" arrivalPos="66.23" arrivalSpeed="13.65" duration="692.00" routeLength="172.92" waitSteps="659" timeLoss="678.87" rerouteNo="0" devices="tripinfo_type11.4" vType="CarB" speedFactor="1.00" vaporized=""/>
    <tripinfo id="type5.4" depart="83.00" departLane="-road1_0" departPos="5.10" departSpeed="0.00" departDelay="3.00" arrival="779.00" arrivalLane="-road2_0" arrivalPos="66.23" arrivalSpeed="13.08" duration="696.00" routeLength="270.96" waitSteps="657" timeLoss="675.90" rerouteNo="0" devices="tripinfo_type5.4" vType="CarA" speedFactor="1.00" vaporized=""/>
    <tripinfo id="type1.4" depart="80.00" departLane="-road1_0" departPos="5.10" departSpeed="0.00" departDelay="0.00" arrival="779.00" arrivalLane="-road3_0" arrivalPos="107.12" arrivalSpeed="13.41" duration="699.00" routeLength="311.07" waitSteps="660" timeLoss="676.45" rerouteNo="0" devices="tripinfo_type1.4" vType="CarA" speedFactor="1.00" vaporized=""/>
    <tripinfo id="type6.4" depart="87.00" departLane="-road1_0" departPos="5.60" departSpeed="0.00" departDelay="7.00" arrival="780.00" arrivalLane="-road4_0" arrivalPos="55.50" arrivalSpeed="13.14" duration="693.00" routeLength="254.62" waitSteps="655" timeLoss="673.98" rerouteNo="0" devices="tripinfo_type6.4" vType="CarB" speedFactor="1.00" vaporized=""/>