<?xml version="1.0" encoding="UTF-8"?>

<!-- generated on 04/23/18 20:16:42 by SUMO Version 0.31.0
<?xml version="1.0" encoding="UTF-8"?>

<configuration xmlns:xsi="http://www.w3.org/2001/XMLSchema-instance" xsi:noNamespaceSchemaLocation="http://sumo.dlr.de/xsd/sumoConfiguration.xsd">

    <input>
        <net-file value="..\..\test_environments\single_intersection_map\newnet.net.xml"/>
        <route-files value="..\..\test_environments\single_intersection_map\newnet.rou.xml"/>
    </input>

    <output>
        <tripinfo-output value="tripinfo.xml"/>
    </output>

    <time>
        <begin value="0"/>
        <end value="10000"/>
    </time>

    <processing>
        <time-to-teleport value="-1"/>
    </processing>

    <traci_server>
        <remote-port value="27418"/>
    </traci_server>

</configuration>
-->

<tripinfos xmlns:xsi="http://www.w3.org/2001/XMLSchema-instance" xsi:noNamespaceSchemaLocation="http://sumo.dlr.de/xsd/tripinfo_file.xsd">
    <tripinfo id="type11.0" depart="3.00" departLane="road3_0" departPos="5.60" departSpeed="0.00" departDelay="3.00" arrival="22.00" arrivalLane="-road2_0" arrivalPos="66.23" arrivalSpeed="12.26" duration="19.00" routeLength="172.92" waitSteps="0" timeLoss="6.31" rerouteNo="0" devices="tripinfo_type11.0" vType="CarB" speedFactor="1.00" vaporized=""/>
    <tripinfo id="type2.0" depart="0.00" departLane="road3_0" departPos="5.60" departSpeed="0.00" departDelay="0.00" arrival="28.00" arrivalLane="road1_0" arrivalPos="199.35" arrivalSpeed="13.53" duration="28.00" routeLength="310.49" waitSteps="0" timeLoss="5.13" rerouteNo="0" devices="tripinfo_type2.0" vType="CarB" speedFactor="1.00" vaporized=""/>
    <tripinfo id="type12.0" depart="7.00" departLane="road3_0" departPos="5.10" departSpeed="0.00" departDelay="7.00" arrival="28.00" arrivalLane="-road4_0" arrivalPos="55.50" arrivalSpeed="11.26" duration="21.00" routeLength="168.41" waitSteps="0" timeLoss="8.59" rerouteNo="0" devices="tripinfo_type12.0" vType="CarA" speedFactor="1.00" vaporized=""/>
    <tripinfo id="type5.0" depart="4.00" departLane="-road1_0" departPos="5.10" departSpeed="0.00" departDelay="4.00" arrival="29.00" arrivalLane="-road2_0" arrivalPos="66.23" arrivalSpeed="11.91" duration="25.00" routeLength="270.96" waitSteps="0" timeLoss="5.13" rerouteNo="0" devices="tripinfo_type5.0" vType="CarA" speedFactor="1.00" vaporized=""/>
    <tripinfo id="type1.0" depart="0.00" departLane="-road1_0" departPos="5.10" departSpeed="0.00" departDelay="0.00" arrival="30.00" arrivalLane="-road3_0" arrivalPos="107.12" arrivalSpeed="11.76" duration="30.00" routeLength="311.07" waitSteps="0" timeLoss="7.26" rerouteNo="0" devices="tripinfo_type1.0" vType="CarA" speedFactor="1.00" vaporized=""/>
    <tripinfo id="type6.0" depart="7.00" departLane="-road1_0" departPos="5.60" departSpeed="0.00" departDelay="7.00" arrival="32.00" arrivalLane="-road4_0" arrivalPos="55.50" arrivalSpeed="12.15" duration="25.00" routeLength="254.62" waitSteps="0" timeLoss="5.86" rerouteNo="0" devices="tripinfo_type6.0" vType="CarB" speedFactor="1.00" vaporized=""/>
    <tripinfo id="type11.1" depart="24.00" departLane="road3_0" departPos="5.60" departSpeed="0.00" departDelay="4.00" arrival="43.00" arrivalLane="-road2_0" arrivalPos="66.23" arrivalSpeed="12.42" duration="19.00" routeLength="172.92" waitSteps="0" timeLoss="6.46" rerouteNo="0" devices="tripinfo_type11.1" vType="CarB" speedFactor="1.00" vaporized=""/>
    <tripinfo id="type5.1" depart="22.00" departLane="-road1_0" departPos="5.10" departSpeed="0.00" departDelay="2.00" arrival="48.00" arrivalLane="-road2_0" arrivalPos="66.23" arrivalSpeed="13.58" duration="26.00" routeLength="270.96" waitSteps="0" timeLoss="5.64" rerouteNo="0" devices="tripinfo_type5.1" vType="CarA" speedFactor="1.00" vaporized=""/>
    <tripinfo id="type1.1" depart="20.00" departLane="-road1_0" departPos="5.10" departSpeed="0.00" departDelay="0.00" arrival="48.00" arrivalLane="-road3_0" arrivalPos="107.12" arrivalSpeed="13.14" duration="28.00" routeLength="311.07" waitSteps="0" timeLoss="4.70" rerouteNo="0" devices="tripinfo_type1.1" vType="CarA" speedFactor="1.00" vaporized=""/>
    <tripinfo id="type12.1" depart="28.00" departLane="road3_0" departPos="5.10" departSpeed="0.00" departDelay="8.00" arrival="48.00" arrivalLane="-road4_0" arrivalPos="55.50" arrivalSpeed="11.34" duration="20.00" routeLength="168.41" waitSteps="0" timeLoss="7.86" rerouteNo="0" devices="tripinfo_type12.1" vType="CarA" speedFactor="1.00" vaporized=""/>
    <tripinfo id="type2.1" depart="20.00" departLane="road3_0" departPos="5.60" departSpeed="0.00" departDelay="0.00" arrival="50.00" arrivalLane="road1_0" arrivalPos="199.35" arrivalSpeed="12.97" duration="30.00" routeLength="310.49" waitSteps="0" timeLoss="7.58" rerouteNo="0" devices="tripinfo_type2.1" vType="CarB" speedFactor="1.00" vaporized=""/>
    <tripinfo id="type6.1" depart="26.00" departLane="-road1_0" departPos="5.60" departSpeed="0.00" departDelay="6.00" arrival="52.00" arrivalLane="-road4_0" arrivalPos="55.50" arrivalSpeed="12.64" duration="26.00" routeLength="254.62" waitSteps="0" timeLoss="7.64" rerouteNo="0" devices="tripinfo_type6.1" vType="CarB" speedFactor="1.00" vaporized=""/>
    <tripinfo id="type11.2" depart="44.00" departLane="road3_0" departPos="5.60" departSpeed="0.00" departDelay="4.00" arrival="63.00" arrivalLane="-road2_0" arrivalPos="66.23" arrivalSpeed="13.02" duration="19.00" routeLength="172.92" waitSteps="0" timeLoss="5.89" rerouteNo="0" devices="tripinfo_type11.2" vType="CarB" speedFactor="1.00" vaporized=""/>
    <tripinfo id="type12.2" depart="49.00" departLane="road3_0" departPos="5.10" departSpeed="0.00" departDelay="9.00" arrival="67.00" arrivalLane="-road4_0" arrivalPos="55.50" arrivalSpeed="13.53" duration="18.00" routeLength="168.41" waitSteps="0" timeLoss="5.86" rerouteNo="0" devices="tripinfo_type12.2" vType="CarA" speedFactor="1.00" vaporized=""/>
    <tripinfo id="type1.2" depart="40.00" departLane="-road1_0" departPos="5.10" departSpeed="0.00" departDelay="0.00" arrival="69.00" arrivalLane="-road3_0" arrivalPos="107.12" arrivalSpeed="13.43" duration="29.00" routeLength="311.07" waitSteps="0" timeLoss="5.79" rerouteNo="0" devices="tripinfo_type1.2" vType="CarA" speedFactor="1.00" vaporized=""/>
    <tripinfo id="type2.2" depart="40.00" departLane="road3_0" departPos="5.60" departSpeed="0.00" departDelay="0.00" arrival="70.00" arrivalLane="road1_0" arrivalPos="199.35" arrivalSpeed="13.56" duration="30.00" routeLength="310.49" waitSteps="0" timeLoss="7.60" rerouteNo="0" devices="tripinfo_type2.2" vType="CarB" speedFactor="1.00" vaporized=""/>
    <tripinfo id="type5.2" depart="44.00" departLane="-road1_0" departPos="5.10" departSpeed="0.00" departDelay="4.00" arrival="71.00" arrivalLane="-road2_0" arrivalPos="66.23" arrivalSpeed="12.96" duration="27.00" routeLength="270.96" waitSteps="0" timeLoss="6.97" rerouteNo="0" devices="tripinfo_type5.2" vType="CarA" speedFactor="1.00" vaporized=""/>
    <tripinfo id="type6.2" depart="48.00" departLane="-road1_0" departPos="5.60" departSpeed="0.00" departDelay="8.00" arrival="74.00" arrivalLane="-road4_0" arrivalPos="55.50" arrivalSpeed="12.98" duration="26.00" routeLength="254.62" waitSteps="0" timeLoss="7.04" rerouteNo="0" devices="tripinfo_type6.2" vType="CarB" speedFactor="1.00" vaporized=""/>
    <tripinfo id="type11.3" depart="64.00" departLane="road3_0" departPos="5.60" departSpeed="0.00" departDelay="4.00" arrival="84.00" arrivalLane="-road2_0" arrivalPos="66.23" arrivalSpeed="13.00" duration="20.00" routeLength="172.92" waitSteps="0" timeLoss="7.04" rerouteNo="0" devices="tripinfo_type11.3" vType="CarB" speedFactor="1.00" vaporized=""/>
    <tripinfo id="type12.3" depart="67.00" departLane="road3_0" departPos="5.10" departSpeed="0.00" departDelay="7.00" arrival="88.00" arrivalLane="-road4_0" arrivalPos="55.50" arrivalSpeed="12.33" duration="21.00" routeLength="168.41" waitSteps="0" timeLoss="8.39" rerouteNo="0" devices="tripinfo_type12.3" vType="CarA" speedFactor="1.00" vaporized=""/>
    <tripinfo id="type1.3" depart="60.00" departLane="-road1_0" departPos="5.10" departSpeed="0.00" departDelay="0.00" arrival="89.00" arrivalLane="-road3_0" arrivalPos="107.12" arrivalSpeed="13.89" duration="29.00" routeLength="311.07" waitSteps="0" timeLoss="6.07" rerouteNo="0" devices="tripinfo_type1.3" vType="CarA" speedFactor="1.00" vaporized=""/>
    <tripinfo id="type5.3" depart="64.00" departLane="-road1_0" departPos="5.10" departSpeed="0.00" departDelay="4.00" arrival="89.00" arrivalLane="-road2_0" arrivalPos="66.23" arrivalSpeed="13.24" duration="25.00" routeLength="270.96" waitSteps="0" timeLoss="5.35" rerouteNo="0" devices="tripinfo_type5.3" vType="CarA" speedFactor="1.00" vaporized=""/>
    <tripinfo id="type2.3" depart="60.00" departLane="road3_0" departPos="5.60" departSpeed="0.00" departDelay="0.00" arrival="90.00" arrivalLane="road1_0" arrivalPos="199.35" arrivalSpeed="12.40" duration="30.00" routeLength="310.49" waitSteps="0" timeLoss="6.99" rerouteNo="0" devices="tripinfo_type2.3" vType="CarB" speedFactor="1.00" vaporized=""/>
    <tripinfo id="type6.3" depart="67.00" departLane="-road1_0" departPos="5.60" departSpeed="0.00" departDelay="7.00" arrival="92.00" arrivalLane="-road4_0" arrivalPos="55.50" arrivalSpeed="13.13" duration="25.00" routeLength="254.62" waitSteps="0" timeLoss="6.59" rerouteNo="0" devices="tripinfo_type6.3" vType="CarB" speedFactor="1.00" vaporized=""/>
    <tripinfo id="type11.4" depart="84.00" departLane="road3_0" departPos="5.60" departSpeed="0.00" departDelay="4.00" arrival="104.00" arrivalLane="-road2_0" arrivalPos="66.23" arrivalSpeed="12.56" duration="20.00" routeLength="172.92" waitSteps="1" timeLoss="7.09" rerouteNo="0" devices="tripinfo_type11.4" vType="CarB" speedFactor="1.00" vaporized=""/>
    <tripinfo id="type1.4" depart="80.00" departLane="-road1_0" departPos="5.10" departSpeed="0.00" departDelay="0.00" arrival="108.00" arrivalLane="-road3_0" arrivalPos="107.12" arrivalSpeed="12.91" duration="28.00" routeLength="311.07" waitSteps="0" timeLoss="5.25" rerouteNo="0" devices="tripinfo_type1.4" vType="CarA" speedFactor="1.00" vaporized=""/>
    <tripinfo id="type5.4" depart="83.00" departLane="-road1_0" departPos="5.10" departSpeed="0.00" departDelay="3.00" arrival="108.00" arrivalLane="-road2_0" arrivalPos="66.23" arrivalSpeed="13.63" duration="25.00" routeLength="270.96" waitSteps="0" timeLoss="5.04" rerouteNo="0" devices="tripinfo_type5.4" vType="CarA" speedFactor="1.00" vaporized=""/>
    <tripinfo id="type12.4" depart="88.00" departLane="road3_0" departPos="5.10" departSpeed="0.00" departDelay="8.00" arrival="108.00" arrivalLane="-road4_0" arrivalPos="55.50" arrivalSpeed="12.40" duration="20.00" routeLength="168.41" waitSteps="0" timeLoss="7.40" rerouteNo="0" devices="tripinfo_type12.4" vType="CarA" speedFactor="1.00" vaporized=""/>
    <tripinfo id="type2.4" depart="80.00" departLane="road3_0" departPos="5.60" departSpeed="0.00" departDelay="0.00" arrival="111.00" arrivalLane="road1_0" arrivalPos="199.35" arrivalSpeed="12.19" duration="31.00" routeLength="310.49" waitSteps="0" timeLoss="8.13" rerouteNo="0" devices="tripinfo_type2.4" vType="CarB" speedFactor="1.00" vaporized=""/>
    <tripinfo id="type4.0" depart="0.00" departLane="road2_0" departPos="5.10" departSpeed="0.00" departDelay="0.00" arrival="290.00" arrivalLane="-road4_0" arrivalPos="55.50" arrivalSpeed="11.06" duration="290.00" routeLength="127.19" waitSteps="268" timeLoss="280.44" rerouteNo="0" devices="tripinfo_type4.0" vType="CarA" speedFactor="1.00" vaporized=""/>
    <tripinfo id="type3.0" depart="0.00" departLane="road4_0" departPos="5.60" departSpeed="0.00" departDelay="0.00" arrival="291.00" arrivalLane="-road2_0" arrivalPos="66.23" arrivalSpeed="12.43" duration="291.00" routeLength="125.99" waitSteps="267" timeLoss="281.20" rerouteNo="0" devices="tripinfo_type3.0" vType="CarB" speedFactor="1.00" vaporized=""/>
    <tripinfo id="type9.0" depart="7.00" departLane="road4_0" departPos="5.10" departSpeed="0.00" departDelay="7.00" arrival="299.00" arrivalLane="-road3_0" arrivalPos="107.12" arrivalSpeed="13.72" duration="292.00" routeLength="162.78" waitSteps="264" timeLoss="280.09" rerouteNo="0" devices="tripinfo_type9.0" vType="CarA" speedFactor="1.00" vaporized=""/>
    <tripinfo id="type3.1" depart="20.00" departLane="road4_0" departPos="5.60" departSpeed="0.00" departDelay="0.00" arrival="299.00" arrivalLane="-road2_0" arrivalPos="66.23" arrivalSpeed="12.90" duration="279.00" routeLength="125.99" waitSteps="255" timeLoss="269.38" rerouteNo="0" devices="tripinfo_type3.1" vType="CarB" speedFactor="1.00" vaporized=""/>
    <tripinfo id="type7.0" depart="3.00" departLane="road2_0" departPos="5.60" departSpeed="0.00" departDelay="3.00" arrival="305.00" arrivalLane="road1_0" arrivalPos="199.35" arrivalSpeed="13.43" duration="302.00" routeLength="265.57" waitSteps="267" timeLoss="282.84" rerouteNo="0" devices="tripinfo_type7.0" vType="CarB" speedFactor="1.00" vaporized=""/>
    <tripinfo id="type9.1" depart="27.00" departLane="road4_0" departPos="5.10" departSpeed="0.00" departDelay="7.00" arrival="307.00" arrivalLane="-road3_0" arrivalPos="107.12" arrivalSpeed="13.32" duration="280.00" routeLength="162.78" waitSteps="251" timeLoss="267.66" rerouteNo="0" devices="tripinfo_type9.1" vType="CarA" speedFactor="1.00" vaporized=""/>
    <tripinfo id="type3.2" depart="40.00" departLane="road4_0" departPos="5.60" departSpeed="0.00" departDelay="0.00" arrival="307.00" arrivalLane="-road2_0" arrivalPos="66.23" arrivalSpeed="13.37" duration="267.00" routeLength="125.99" waitSteps="243" timeLoss="257.25" rerouteNo="0" devices="tripinfo_type3.2" vType="CarB" speedFactor="1.00" vaporized=""/>
    <tripinfo id="type8.0" depart="4.00" departLane="road4_0" departPos="5.10" departSpeed="0.00" departDelay="4.00" arrival="308.00" arrivalLane="road1_0" arrivalPos="199.35" arrivalSpeed="11.31" duration="304.00" routeLength="260.05" waitSteps="264" timeLoss="284.88" rerouteNo="0" devices="tripinfo_type8.0" vType="CarA" speedFactor="1.00" vaporized=""/>
    <tripinfo id="type4.1" depart="20.00" departLane="road2_0" departPos="5.10" departSpeed="0.00" departDelay="0.00" arrival="312.00" arrivalLane="-road4_0" arrivalPos="55.50" arrivalSpeed="12.82" duration="292.00" routeLength="127.19" waitSteps="263" timeLoss="282.33" rerouteNo="0" devices="tripinfo_type4.1" vType="CarA" speedFactor="1.00" vaporized=""/>
    <tripinfo id="type8.1" depart="23.00" departLane="road4_0" departPos="5.10" departSpeed="0.00" departDelay="3.00" arrival="313.00" arrivalLane="road1_0" arrivalPos="199.35" arrivalSpeed="12.19" duration="290.00" routeLength="260.05" waitSteps="254" timeLoss="270.41" rerouteNo="0" devices="tripinfo_type8.1" vType="CarA" speedFactor="1.00" vaporized=""/>
    <tripinfo id="type10.0" depart="7.00" departLane="road2_0" departPos="5.60" departSpeed="0.00" departDelay="7.00" arrival="317.00" arrivalLane="-road3_0" arrivalPos="107.12" arrivalSpeed="13.80" duration="310.00" routeLength="178.79" waitSteps="275" timeLoss="296.46" rerouteNo="0" devices="tripinfo_type10.0" vType="CarB" speedFactor="1.00" vaporized=""/>
    <tripinfo id="type3.3" depart="301.00" departLane="road4_0" departPos="5.60" departSpeed="0.00" departDelay="241.00" arrival="317.00" arrivalLane="-road2_0" arrivalPos="66.23" arrivalSpeed="13.35" duration="16.00" routeLength="125.99" waitSteps="0" timeLoss="6.40" rerouteNo="0" devices="tripinfo_type3.3" vType="CarB" speedFactor="1.00" vaporized=""/>
    <tripinfo id="type9.2" depart="298.00" departLane="road4_0" departPos="5.10" departSpeed="0.00" departDelay="258.00" arrival="319.00" arrivalLane="-road3_0" arrivalPos="107.12" arrivalSpeed="12.23" duration="21.00" routeLength="162.78" waitSteps="0" timeLoss="8.86" rerouteNo="0" devices="tripinfo_type9.2" vType="CarA" speedFactor="1.00" vaporized=""/>
    <tripinfo id="type4.2" depart="40.00" departLane="road2_0" departPos="5.10" departSpeed="0.00" departDelay="0.00" arrival="321.00" arrivalLane="-road4_0" arrivalPos="55.50" arrivalSpeed="13.61" duration="281.00" routeLength="127.19" waitSteps="244" timeLoss="271.11" rerouteNo="0" devices="tripinfo_type4.2" vType="CarA" speedFactor="1.00" vaporized=""/>
    <tripinfo id="type10.1" depart="27.00" departLane="road2_0" departPos="5.60" departSpeed="0.00" departDelay="7.00" arrival="323.00" arrivalLane="-road3_0" arrivalPos="107.12" arrivalSpeed="12.33" duration="296.00" routeLength="178.79" waitSteps="257" timeLoss="282.49" rerouteNo="0" devices="tripinfo_type10.1" vType="CarB" speedFactor="1.00" vaporized=""/>
    <tripinfo id="type7.1" depart="23.00" departLane="road2_0" departPos="5.60" departSpeed="0.00" departDelay="3.00" arrival="325.00" arrivalLane="road1_0" arrivalPos="199.35" arrivalSpeed="13.42" duration="302.00" routeLength="265.57" waitSteps="259" timeLoss="282.49" rerouteNo="0" devices="tripinfo_type7.1" vType="CarB" speedFactor="1.00" vaporized=""/>
    <tripinfo id="type9.3" depart="308.00" departLane="road4_0" departPos="5.10" departSpeed="0.00" departDelay="248.00" arrival="327.00" arrivalLane="-road3_0" arrivalPos="107.12" arrivalSpeed="13.62" duration="19.00" routeLength="162.78" waitSteps="1" timeLoss="6.49" rerouteNo="0" devices="tripinfo_type9.3" vType="CarA" speedFactor="1.00" vaporized=""/>
    <tripinfo id="type3.4" depart="313.00" departLane="road4_0" departPos="5.60" departSpeed="0.00" departDelay="233.00" arrival="328.00" arrivalLane="-road2_0" arrivalPos="66.23" arrivalSpeed="12.58" duration="15.00" routeLength="125.99" waitSteps="0" timeLoss="5.60" rerouteNo="0" devices="tripinfo_type3.4" vType="CarB" speedFactor="1.00" vaporized=""/>
    <tripinfo id="type8.2" depart="294.00" departLane="road4_0" departPos="5.10" departSpeed="0.00" departDelay="254.00" arrival="329.00" arrivalLane="road1_0" arrivalPos="199.35" arrivalSpeed="11.49" duration="35.00" routeLength="260.05" waitSteps="4" timeLoss="16.05" rerouteNo="0" devices="tripinfo_type8.2" vType="CarA" speedFactor="1.00" vaporized=""/>
    <tripinfo id="type7.2" depart="44.00" departLane="road2_0" departPos="5.60" departSpeed="0.00" departDelay="4.00" arrival="335.00" arrivalLane="road1_0" arrivalPos="199.35" arrivalSpeed="13.27" duration="291.00" routeLength="265.57" waitSteps="245" timeLoss="271.06" rerouteNo="0" devices="tripinfo_type7.2" vType="CarB" speedFactor="1.00" vaporized=""/>
    <tripinfo id="type9.4" depart="319.00" departLane="road4_0" departPos="5.10" departSpeed="0.00" departDelay="239.00" arrival="336.00" arrivalLane="-road3_0" arrivalPos="107.12" arrivalSpeed="11.70" duration="17.00" routeLength="162.78" waitSteps="1" timeLoss="4.80" rerouteNo="0" devices="tripinfo_type9.4" vType="CarA" speedFactor="1.00" vaporized=""/>
    <tripinfo id="type4.3" depart="295.00" departLane="road2_0" departPos="5.10" departSpeed="0.00" departDelay="235.00" arrival="339.00" arrivalLane="-road4_0" arrivalPos="55.50" arrivalSpeed="13.49" duration="44.00" routeLength="127.19" waitSteps="7" timeLoss="34.05" rerouteNo="0" devices="tripinfo_type4.3" vType="CarA" speedFactor="1.00" vaporized=""/>
    <tripinfo id="type8.3" depart="305.00" departLane="road4_0" departPos="5.10" departSpeed="0.00" departDelay="245.00" arrival="340.00" arrivalLane="road1_0" arrivalPos="199.35" arrivalSpeed="13.08" duration="35.00" routeLength="260.05" waitSteps="5" timeLoss="15.78" rerouteNo="0" devices="tripinfo_type8.3" vType="CarA" speedFactor="1.00" vaporized=""/>
    <tripinfo id="type3.5" depart="323.00" departLane="road4_0" departPos="5.60" departSpeed="0.00" departDelay="223.00" arrival="340.00" arrivalLane="-road2_0" arrivalPos="66.23" arrivalSpeed="13.14" duration="17.00" routeLength="125.99" waitSteps="0" timeLoss="7.04" rerouteNo="0" devices="tripinfo_type3.5" vType="CarB" speedFactor="1.00" vaporized=""/>
    <tripinfo id="type8.4" depart="317.00" departLane="road4_0" departPos="5.10" departSpeed="0.00" departDelay="237.00" arrival="342.00" arrivalLane="road1_0" arrivalPos="199.35" arrivalSpeed="11.36" duration="25.00" routeLength="260.05" waitSteps="0" timeLoss="6.19" rerouteNo="0" devices="tripinfo_type8.4" vType="CarA" speedFactor="1.00" vaporized=""/>
    <tripinfo id="type10.2" depart="292.00" departLane="road2_0" departPos="5.60" departSpeed="0.00" departDelay="252.00" arrival="343.00" arrivalLane="-road3_0" arrivalPos="107.12" arrivalSpeed="12.17" duration="51.00" routeLength="178.79" waitSteps="12" timeLoss="37.84" rerouteNo="0" devices="tripinfo_type10.2" vType="CarB" speedFactor="1.00" vaporized=""/>
    <tripinfo id="type9.5" depart="331.00" departLane="road4_0" departPos="5.10" departSpeed="0.00" departDelay="231.00" arrival="348.00" arrivalLane="-road3_0" arrivalPos="107.12" arrivalSpeed="11.94" duration="17.00" routeLength="162.78" waitSteps="0" timeLoss="5.02" rerouteNo="0" devices="tripinfo_type9.5" vType="CarA" speedFactor="1.00" vaporized=""/>
    <tripinfo id="type3.6" depart="334.00" departLane="road4_0" departPos="5.60" departSpeed="0.00" departDelay="214.00" arrival="350.00" arrivalLane="-road2_0" arrivalPos="66.23" arrivalSpeed="13.40" duration="16.00" routeLength="125.99" waitSteps="0" timeLoss="6.20" rerouteNo="0" devices="tripinfo_type3.6" vType="CarB" speedFactor="1.00" vaporized=""/>
    <tripinfo id="type7.3" depart="300.00" departLane="road2_0" departPos="5.60" departSpeed="0.00" departDelay="240.00" arrival="353.00" arrivalLane="road1_0" arrivalPos="199.35" arrivalSpeed="13.89" duration="53.00" routeLength="265.57" waitSteps="2" timeLoss="33.74" rerouteNo="0" devices="tripinfo_type7.3" vType="CarB" speedFactor="1.00" vaporized=""/>
    <tripinfo id="type8.5" depart="327.00" departLane="road4_0" departPos="5.10" departSpeed="0.00" departDelay="227.00" arrival="356.00" arrivalLane="road1_0" arrivalPos="199.35" arrivalSpeed="13.67" duration="29.00" routeLength="260.05" waitSteps="0" timeLoss="9.42" rerouteNo="0" devices="tripinfo_type8.5" vType="CarA" speedFactor="1.00" vaporized=""/>
    <tripinfo id="type9.6" depart="341.00" departLane="road4_0" departPos="5.10" departSpeed="0.00" departDelay="221.00" arrival="359.00" arrivalLane="-road3_0" arrivalPos="107.12" arrivalSpeed="13.26" duration="18.00" routeLength="162.78" waitSteps="0" timeLoss="5.43" rerouteNo="0" devices="tripinfo_type9.6" vType="CarA" speedFactor="1.00" vaporized=""/>
    <tripinfo id="type4.4" depart="322.00" departLane="road2_0" departPos="5.10" departSpeed="0.00" departDelay="242.00" arrival="360.00" arrivalLane="-road4_0" arrivalPos="55.50" arrivalSpeed="12.52" duration="38.00" routeLength="127.19" waitSteps="8" timeLoss="28.36" rerouteNo="0" devices="tripinfo_type4.4" vType="CarA" speedFactor="1.00" vaporized=""/>
    <tripinfo id="type3.7" depart="345.00" departLane="road4_0" departPos="5.60" departSpeed="0.00" departDelay="205.00" arrival="361.00" arrivalLane="-road2_0" arrivalPos="66.23" arrivalSpeed="12.84" duration="16.00" routeLength="125.99" waitSteps="0" timeLoss="6.67" rerouteNo="0" devices="tripinfo_type3.7" vType="CarB" speedFactor="1.00" vaporized=""/>
    <tripinfo id="type10.3" depart="317.00" departLane="road2_0" departPos="5.60" departSpeed="0.00" departDelay="257.00" arrival="364.00" arrivalLane="-road3_0" arrivalPos="107.12" arrivalSpeed="13.00" duration="47.00" routeLength="178.79" waitSteps="9" timeLoss="33.88" rerouteNo="0" devices="tripinfo_type10.3" vType="CarB" speedFactor="1.00" vaporized=""/>
    <tripinfo id="type8.6" depart="338.00" departLane="road4_0" departPos="5.10" departSpeed="0.00" departDelay="218.00" arrival="366.00" arrivalLane="road1_0" arrivalPos="199.35" arrivalSpeed="12.47" duration="28.00" routeLength="260.05" waitSteps="0" timeLoss="8.61" rerouteNo="0" devices="tripinfo_type8.6" vType="CarA" speedFactor="1.00" vaporized=""/>
    <tripinfo id="type9.7" depart="351.00" departLane="road4_0" departPos="5.10" departSpeed="0.00" departDelay="211.00" arrival="370.00" arrivalLane="-road3_0" arrivalPos="107.12" arrivalSpeed="11.77" duration="19.00" routeLength="162.78" waitSteps="0" timeLoss="6.73" rerouteNo="0" devices="tripinfo_type9.7" vType="CarA" speedFactor="1.00" vaporized=""/>
    <tripinfo id="type3.8" depart="355.00" departLane="road4_0" departPos="5.60" departSpeed="0.00" departDelay="195.00" arrival="372.00" arrivalLane="-road2_0" arrivalPos="66.23" arrivalSpeed="13.67" duration="17.00" routeLength="125.99" waitSteps="1" timeLoss="7.28" rerouteNo="0" devices="tripinfo_type3.8" vType="CarB" speedFactor="1.00" vaporized=""/>
    <tripinfo id="type7.4" depart="326.00" departLane="road2_0" departPos="5.60" departSpeed="0.00" departDelay="246.00" arrival="377.00" arrivalLane="road1_0" arrivalPos="199.35" arrivalSpeed="12.83" duration="51.00" routeLength="265.57" waitSteps="5" timeLoss="31.65" rerouteNo="0" devices="tripinfo_type7.4" vType="CarB" speedFactor="1.00" vaporized=""/>
    <tripinfo id="type8.7" depart="349.00" departLane="road4_0" departPos="5.10" departSpeed="0.00" departDelay="209.00" arrival="380.00" arrivalLane="road1_0" arrivalPos="199.35" arrivalSpeed="11.38" duration="31.00" routeLength="260.05" waitSteps="1" timeLoss="11.64" rerouteNo="0" devices="tripinfo_type8.7" vType="CarA" speedFactor="1.00" vaporized=""/>
    <tripinfo id="type9.8" depart="363.00" departLane="road4_0" departPos="5.10" departSpeed="0.00" departDelay="203.00" arrival="380.00" arrivalLane="-road3_0" arrivalPos="107.12" arrivalSpeed="12.41" duration="17.00" routeLength="162.78" waitSteps="0" timeLoss="5.20" rerouteNo="0" devices="tripinfo_type9.8" vType="CarA" speedFactor="1.00" vaporized=""/>
    <tripinfo id="type4.5" depart="334.00" departLane="road2_0" departPos="5.10" departSpeed="0.00" departDelay="234.00" arrival="382.00" arrivalLane="-road4_0" arrivalPos="55.50" arrivalSpeed="13.34" duration="48.00" routeLength="127.19" waitSteps="9" timeLoss="38.33" rerouteNo="0" devices="tripinfo_type4.5" vType="CarA" speedFactor="1.00" vaporized=""/>
    <tripinfo id="type3.9" depart="366.00" departLane="road4_0" departPos="5.60" departSpeed="0.00" departDelay="186.00" arrival="382.00" arrivalLane="-road2_0" arrivalPos="66.23" arrivalSpeed="12.37" duration="16.00" routeLength="125.99" waitSteps="0" timeLoss="6.80" rerouteNo="0" devices="tripinfo_type3.9" vType="CarB" speedFactor="1.00" vaporized=""/>
    <tripinfo id="type8.8" depart="360.00" departLane="road4_0" departPos="5.10" departSpeed="0.00" departDelay="200.00" arrival="386.00" arrivalLane="road1_0" arrivalPos="199.35" arrivalSpeed="13.70" duration="26.00" routeLength="260.05" waitSteps="0" timeLoss="6.66" rerouteNo="0" devices="tripinfo_type8.8" vType="CarA" speedFactor="1.00" vaporized=""/>
    <tripinfo id="type10.4" depart="330.00" departLane="road2_0" departPos="5.60" departSpeed="0.00" departDelay="250.00" arrival="386.00" arrivalLane="-road3_0" arrivalPos="107.12" arrivalSpeed="13.81" duration="56.00" routeLength="178.79" waitSteps="13" timeLoss="42.23" rerouteNo="0" devices="tripinfo_type10.4" vType="CarB" speedFactor="1.00" vaporized=""/>
    <tripinfo id="type10.5" depart="344.00" departLane="road2_0" departPos="5.60" departSpeed="0.00" departDelay="244.00" arrival="394.00" arrivalLane="-road3_0" arrivalPos="107.12" arrivalSpeed="12.11" duration="50.00" routeLength="178.79" waitSteps="5" timeLoss="36.56" rerouteNo="0" devices="tripinfo_type10.5" vType="CarB" speedFactor="1.00" vaporized=""/>
    <tripinfo id="type7.5" depart="339.00" departLane="road2_0" departPos="5.60" departSpeed="0.00" departDelay="239.00" arrival="396.00" arrivalLane="road1_0" arrivalPos="199.35" arrivalSpeed="12.22" duration="57.00" routeLength="265.57" waitSteps="7" timeLoss="37.40" rerouteNo="0" devices="tripinfo_type7.5" vType="CarB" speedFactor="1.00" vaporized=""/>
    <tripinfo id="type8.9" depart="370.00" departLane="road4_0" departPos="5.10" departSpeed="0.00" departDelay="190.00" arrival="400.00" arrivalLane="road1_0" arrivalPos="199.35" arrivalSpeed="11.67" duration="30.00" routeLength="260.05" waitSteps="1" timeLoss="10.76" rerouteNo="0" devices="tripinfo_type8.9" vType="CarA" speedFactor="1.00" vaporized=""/>
    <tripinfo id="type6.4" depart="86.00" departLane="-road1_0" departPos="5.60" departSpeed="0.00" departDelay="6.00" arrival="590.00" arrivalLane="-road4_0" arrivalPos="55.50" arrivalSpeed="10.74" duration="504.00" routeLength="254.62" waitSteps="471" timeLoss="484.86" rerouteNo="0" devices="tripinfo_type6.4" vType="CarB" speedFactor="1.00" vaporized=""/>
    <tripinfo id="type12.5" depart="108.00" departLane="road3_0" departPos="5.10" departSpeed="0.00" departDelay="8.00" arrival="594.00" arrivalLane="-road4_0" arrivalPos="55.50" arrivalSpeed="12.10" duration="486.00" routeLength="168.41" waitSteps="457" timeLoss="472.99" rerouteNo="0" devices="tripinfo_type12.5" vType="CarA" speedFactor="1.00" vaporized=""/>
    <tripinfo id="type11.5" depart="104.00" departLane="road3_0" departPos="5.60" departSpeed="0.00" departDelay="4.00" arrival="594.00" arrivalLane="-road2_0" arrivalPos="66.23" arrivalSpeed="12.46" duration="490.00" routeLength="172.92" waitSteps="463" timeLoss="476.25" rerouteNo="0" devices="tripinfo_type11.5" vType="CarB" speedFactor="1.00" vaporized=""/>
    <tripinfo id="type5.5" depart="103.00" departLane="-road1_0" departPos="5.10" departSpeed="0.00" departDelay="3.00" arrival="596.00" arrivalLane="-road2_0" arrivalPos="66.23" arrivalSpeed="13.15" duration="493.00" routeLength="270.96" waitSteps="457" timeLoss="472.46" rerouteNo="0" devices="tripinfo_type5.5" vType="CarA" speedFactor="1.00" vaporized=""/>
    <tripinfo id="type1.5" depart="100.00" departLane="-road1_0" departPos="5.10" departSpeed="0.00" departDelay="0.00" arrival="597.00" arrivalLane="-road3_0" arrivalPos="107.12" arrivalSpeed="12.54" duration="497.00" routeLength="311.07" waitSteps="459" timeLoss="473.83" rerouteNo="0" devices="tripinfo_type1.5" vType="CarA" speedFactor="1.00" vaporized=""/>