<?xml version="1.0" encoding="UTF-8"?>

<!-- generated on 05/09/18 01:07:21 by SUMO Version 0.32.0
<?xml version="1.0" encoding="UTF-8"?>

<configuration xmlns:xsi="http://www.w3.org/2001/XMLSchema-instance" xsi:noNamespaceSchemaLocation="http://sumo.dlr.de/xsd/sumoConfiguration.xsd">

    <input>
        <net-file value="..\..\test_environments\single_intersection_random_trips\newnet.net.xml"/>
        <route-files value="..\..\test_environments\single_intersection_random_trips\newnet.rou.xml"/>
    </input>

    <output>
        <tripinfo-output value="tripinfo.xml"/>
    </output>

    <time>
        <begin value="0"/>
        <end value="10000"/>
    </time>

    <processing>
        <time-to-teleport value="-1"/>
    </processing>

    <traci_server>
        <remote-port value="14781"/>
    </traci_server>

</configuration>
-->

<tripinfos xmlns:xsi="http://www.w3.org/2001/XMLSchema-instance" xsi:noNamespaceSchemaLocation="http://sumo.dlr.de/xsd/tripinfo_file.xsd">
    <tripinfo id="11" depart="13.00" departLane="road4_0" departPos="5.10" departSpeed="0.00" departDelay="-0.20" arrival="46.00" arrivalLane="-road3_0" arrivalPos="195.25" arrivalSpeed="13.19" duration="33.00" routeLength="390.40" waitSteps="0" timeLoss="4.56" rerouteNo="0" devices="tripinfo_11" vType="DEFAULT_VEHTYPE" speedFactor="1.00" vaporized=""/>
    <tripinfo id="12" depart="16.00" departLane="road4_0" departPos="5.10" departSpeed="0.00" departDelay="1.60" arrival="49.00" arrivalLane="-road2_0" arrivalPos="195.25" arrivalSpeed="12.82" duration="33.00" routeLength="394.90" waitSteps="0" timeLoss="4.37" rerouteNo="0" devices="tripinfo_12" vType="DEFAULT_VEHTYPE" speedFactor="1.00" vaporized=""/>
    <tripinfo id="13" depart="15.00" departLane="road2_0" departPos="5.10" departSpeed="0.00" departDelay="-0.60" arrival="51.00" arrivalLane="-road3_0" arrivalPos="195.25" arrivalSpeed="12.63" duration="36.00" routeLength="395.72" waitSteps="0" timeLoss="7.35" rerouteNo="0" devices="tripinfo_13" vType="DEFAULT_VEHTYPE" speedFactor="1.00" vaporized=""/>
    <tripinfo id="18" depart="21.00" departLane="road4_0" departPos="5.10" departSpeed="0.00" departDelay="-0.60" arrival="54.00" arrivalLane="-road3_0" arrivalPos="195.25" arrivalSpeed="13.51" duration="33.00" routeLength="390.40" waitSteps="0" timeLoss="4.29" rerouteNo="0" devices="tripinfo_18" vType="DEFAULT_VEHTYPE" speedFactor="1.00" vaporized=""/>
    <tripinfo id="21" depart="25.00" departLane="road2_0" departPos="5.10" departSpeed="0.00" departDelay="-0.20" arrival="58.00" arrivalLane="-road4_0" arrivalPos="195.25" arrivalSpeed="13.37" duration="33.00" routeLength="394.90" waitSteps="0" timeLoss="4.41" rerouteNo="0" devices="tripinfo_21" vType="DEFAULT_VEHTYPE" speedFactor="1.00" vaporized=""/>
    <tripinfo id="30" depart="36.00" departLane="road2_0" departPos="5.10" departSpeed="0.00" departDelay="0.00" arrival="72.00" arrivalLane="-road3_0" arrivalPos="195.25" arrivalSpeed="13.11" duration="36.00" routeLength="395.72" waitSteps="0" timeLoss="7.01" rerouteNo="0" devices="tripinfo_30" vType="DEFAULT_VEHTYPE" speedFactor="1.00" vaporized=""/>
    <tripinfo id="32" depart="38.00" departLane="road4_0" departPos="5.10" departSpeed="0.00" departDelay="-0.40" arrival="73.00" arrivalLane="road1_0" arrivalPos="195.25" arrivalSpeed="13.19" duration="35.00" routeLength="395.72" waitSteps="0" timeLoss="5.61" rerouteNo="0" devices="tripinfo_32" vType="DEFAULT_VEHTYPE" speedFactor="1.00" vaporized=""/>
    <tripinfo id="33" depart="41.00" departLane="road4_0" departPos="5.10" departSpeed="0.00" departDelay="1.40" arrival="77.00" arrivalLane="road1_0" arrivalPos="195.25" arrivalSpeed="13.16" duration="36.00" routeLength="395.72" waitSteps="0" timeLoss="6.58" rerouteNo="0" devices="tripinfo_33" vType="DEFAULT_VEHTYPE" speedFactor="1.00" vaporized=""/>
    <tripinfo id="37" depart="44.00" departLane="road4_0" departPos="5.10" departSpeed="0.00" departDelay="-0.40" arrival="78.00" arrivalLane="-road3_0" arrivalPos="195.25" arrivalSpeed="13.81" duration="34.00" routeLength="390.40" waitSteps="0" timeLoss="4.99" rerouteNo="0" devices="tripinfo_37" vType="DEFAULT_VEHTYPE" speedFactor="1.00" vaporized=""/>
    <tripinfo id="35" depart="42.00" departLane="road2_0" departPos="5.10" departSpeed="0.00" departDelay="0.00" arrival="81.00" arrivalLane="-road3_0" arrivalPos="195.25" arrivalSpeed="13.51" duration="39.00" routeLength="395.72" waitSteps="1" timeLoss="9.97" rerouteNo="0" devices="tripinfo_35" vType="DEFAULT_VEHTYPE" speedFactor="1.00" vaporized=""/>
    <tripinfo id="1" depart="1.00" departLane="road3_0" departPos="5.10" departSpeed="0.00" departDelay="-0.20" arrival="90.00" arrivalLane="road1_0" arrivalPos="195.25" arrivalSpeed="13.69" duration="89.00" routeLength="394.90" waitSteps="50" timeLoss="60.03" rerouteNo="0" devices="tripinfo_1" vType="DEFAULT_VEHTYPE" speedFactor="1.00" vaporized=""/>
    <tripinfo id="5" depart="6.00" departLane="-road1_0" departPos="5.10" departSpeed="0.00" departDelay="0.00" arrival="92.00" arrivalLane="-road2_0" arrivalPos="195.25" arrivalSpeed="13.85" duration="86.00" routeLength="395.72" waitSteps="45" timeLoss="57.11" rerouteNo="0" devices="tripinfo_5" vType="DEFAULT_VEHTYPE" speedFactor="1.00" vaporized=""/>
    <tripinfo id="6" depart="9.00" departLane="-road1_0" departPos="5.10" departSpeed="0.00" departDelay="1.80" arrival="93.00" arrivalLane="-road3_0" arrivalPos="195.25" arrivalSpeed="13.81" duration="84.00" routeLength="394.90" waitSteps="43" timeLoss="55.03" rerouteNo="0" devices="tripinfo_6" vType="DEFAULT_VEHTYPE" speedFactor="1.00" vaporized=""/>
    <tripinfo id="4" depart="4.00" departLane="road3_0" departPos="5.10" departSpeed="0.00" departDelay="-0.80" arrival="95.00" arrivalLane="-road4_0" arrivalPos="195.25" arrivalSpeed="13.48" duration="91.00" routeLength="395.72" waitSteps="48" timeLoss="62.13" rerouteNo="0" devices="tripinfo_4" vType="DEFAULT_VEHTYPE" speedFactor="1.00" vaporized=""/>
    <tripinfo id="7" depart="8.00" departLane="road3_0" departPos="5.10" departSpeed="0.00" departDelay="-0.40" arrival="97.00" arrivalLane="road1_0" arrivalPos="195.25" arrivalSpeed="12.66" duration="89.00" routeLength="394.90" waitSteps="47" timeLoss="60.00" rerouteNo="0" devices="tripinfo_7" vType="DEFAULT_VEHTYPE" speedFactor="1.00" vaporized=""/>
    <tripinfo id="8" depart="11.00" departLane="road3_0" departPos="5.10" departSpeed="0.00" departDelay="1.40" arrival="98.00" arrivalLane="-road2_0" arrivalPos="195.25" arrivalSpeed="13.74" duration="87.00" routeLength="390.40" waitSteps="44" timeLoss="58.31" rerouteNo="0" devices="tripinfo_8" vType="DEFAULT_VEHTYPE" speedFactor="1.00" vaporized=""/>
    <tripinfo id="9" depart="14.00" departLane="road3_0" departPos="5.10" departSpeed="0.00" departDelay="3.20" arrival="100.00" arrivalLane="road1_0" arrivalPos="195.25" arrivalSpeed="13.47" duration="86.00" routeLength="394.90" waitSteps="43" timeLoss="57.43" rerouteNo="0" devices="tripinfo_9" vType="DEFAULT_VEHTYPE" speedFactor="1.00" vaporized=""/>
    <tripinfo id="14" depart="17.00" departLane="road3_0" departPos="5.10" departSpeed="0.00" departDelay="0.20" arrival="104.00" arrivalLane="-road4_0" arrivalPos="195.25" arrivalSpeed="13.11" duration="87.00" routeLength="395.72" waitSteps="42" timeLoss="57.67" rerouteNo="0" devices="tripinfo_14" vType="DEFAULT_VEHTYPE" speedFactor="1.00" vaporized=""/>
    <tripinfo id="15" depart="20.00" departLane="road3_0" departPos="5.10" departSpeed="0.00" departDelay="2.00" arrival="105.00" arrivalLane="road1_0" arrivalPos="195.25" arrivalSpeed="13.41" duration="85.00" routeLength="394.90" waitSteps="40" timeLoss="56.41" rerouteNo="0" devices="tripinfo_15" vType="DEFAULT_VEHTYPE" speedFactor="1.00" vaporized=""/>
    <tripinfo id="10" depart="12.00" departLane="-road1_0" departPos="5.10" departSpeed="0.00" departDelay="0.00" arrival="108.00" arrivalLane="-road2_0" arrivalPos="195.25" arrivalSpeed="12.91" duration="96.00" routeLength="395.72" waitSteps="52" timeLoss="67.11" rerouteNo="0" devices="tripinfo_10" vType="DEFAULT_VEHTYPE" speedFactor="1.00" vaporized=""/>
    <tripinfo id="19" depart="22.00" departLane="-road1_0" departPos="5.10" departSpeed="0.00" departDelay="-0.80" arrival="109.00" arrivalLane="-road4_0" arrivalPos="195.25" arrivalSpeed="13.51" duration="87.00" routeLength="390.40" waitSteps="40" timeLoss="58.83" rerouteNo="0" devices="tripinfo_19" vType="DEFAULT_VEHTYPE" speedFactor="1.00" vaporized=""/>
    <tripinfo id="25" depart="30.00" departLane="-road1_0" departPos="5.10" departSpeed="0.00" departDelay="0.00" arrival="111.00" arrivalLane="-road4_0" arrivalPos="195.25" arrivalSpeed="13.72" duration="81.00" routeLength="390.40" waitSteps="32" timeLoss="52.54" rerouteNo="0" devices="tripinfo_25" vType="DEFAULT_VEHTYPE" speedFactor="1.00" vaporized=""/>
    <tripinfo id="31" depart="37.00" departLane="-road1_0" departPos="5.10" departSpeed="0.00" departDelay="-0.20" arrival="113.00" arrivalLane="-road4_0" arrivalPos="195.25" arrivalSpeed="13.07" duration="76.00" routeLength="390.40" waitSteps="27" timeLoss="47.72" rerouteNo="0" devices="tripinfo_31" vType="DEFAULT_VEHTYPE" speedFactor="1.00" vaporized=""/>
    <tripinfo id="38" depart="45.00" departLane="-road1_0" departPos="5.10" departSpeed="0.00" departDelay="-0.60" arrival="117.00" arrivalLane="-road2_0" arrivalPos="195.25" arrivalSpeed="13.10" duration="72.00" routeLength="395.72" waitSteps="22" timeLoss="42.63" rerouteNo="0" devices="tripinfo_38" vType="DEFAULT_VEHTYPE" speedFactor="1.00" vaporized=""/>
    <tripinfo id="42" depart="50.00" departLane="-road1_0" departPos="5.10" departSpeed="0.00" departDelay="-0.40" arrival="118.00" arrivalLane="-road3_0" arrivalPos="195.25" arrivalSpeed="13.12" duration="68.00" routeLength="394.90" waitSteps="17" timeLoss="39.17" rerouteNo="0" devices="tripinfo_42" vType="DEFAULT_VEHTYPE" speedFactor="1.00" vaporized=""/>
    <tripinfo id="59" depart="70.00" departLane="-road1_0" departPos="5.10" departSpeed="0.00" departDelay="-0.80" arrival="120.00" arrivalLane="-road3_0" arrivalPos="195.25" arrivalSpeed="13.39" duration="50.00" routeLength="394.90" waitSteps="5" timeLoss="21.10" rerouteNo="0" devices="tripinfo_59" vType="DEFAULT_VEHTYPE" speedFactor="1.00" vaporized=""/>
    <tripinfo id="63" depart="75.00" departLane="-road1_0" departPos="5.10" departSpeed="0.00" departDelay="-0.60" arrival="121.00" arrivalLane="-road4_0" arrivalPos="195.25" arrivalSpeed="12.88" duration="46.00" routeLength="390.40" waitSteps="4" timeLoss="17.71" rerouteNo="0" devices="tripinfo_63" vType="DEFAULT_VEHTYPE" speedFactor="1.00" vaporized=""/>
    <tripinfo id="16" depart="23.00" departLane="road3_0" departPos="5.10" departSpeed="0.00" departDelay="3.80" arrival="125.00" arrivalLane="-road4_0" arrivalPos="195.25" arrivalSpeed="12.61" duration="102.00" routeLength="395.72" waitSteps="53" timeLoss="73.31" rerouteNo="0" devices="tripinfo_16" vType="DEFAULT_VEHTYPE" speedFactor="1.00" vaporized=""/>
    <tripinfo id="24" depart="28.00" departLane="road3_0" departPos="5.10" departSpeed="0.00" departDelay="-0.80" arrival="127.00" arrivalLane="-road2_0" arrivalPos="195.25" arrivalSpeed="12.91" duration="99.00" routeLength="390.40" waitSteps="46" timeLoss="70.47" rerouteNo="0" devices="tripinfo_24" vType="DEFAULT_VEHTYPE" speedFactor="1.00" vaporized=""/>
    <tripinfo id="26" depart="31.00" departLane="road3_0" departPos="5.10" departSpeed="0.00" departDelay="-0.20" arrival="129.00" arrivalLane="road1_0" arrivalPos="195.25" arrivalSpeed="12.74" duration="98.00" routeLength="394.90" waitSteps="46" timeLoss="68.96" rerouteNo="0" devices="tripinfo_26" vType="DEFAULT_VEHTYPE" speedFactor="1.00" vaporized=""/>
    <tripinfo id="81" depart="97.00" departLane="-road1_0" departPos="5.10" departSpeed="0.00" departDelay="-0.20" arrival="130.00" arrivalLane="-road4_0" arrivalPos="195.25" arrivalSpeed="13.01" duration="33.00" routeLength="390.40" waitSteps="0" timeLoss="4.11" rerouteNo="0" devices="tripinfo_81" vType="DEFAULT_VEHTYPE" speedFactor="1.00" vaporized=""/>
    <tripinfo id="27" depart="34.00" departLane="road3_0" departPos="5.10" departSpeed="0.00" departDelay="1.60" arrival="132.00" arrivalLane="-road4_0" arrivalPos="195.25" arrivalSpeed="13.17" duration="98.00" routeLength="395.72" waitSteps="44" timeLoss="68.90" rerouteNo="0" devices="tripinfo_27" vType="DEFAULT_VEHTYPE" speedFactor="1.00" vaporized=""/>
    <tripinfo id="28" depart="37.00" departLane="road3_0" departPos="5.10" departSpeed="0.00" departDelay="3.40" arrival="133.00" arrivalLane="-road2_0" arrivalPos="195.25" arrivalSpeed="12.76" duration="96.00" routeLength="390.40" waitSteps="43" timeLoss="67.67" rerouteNo="0" devices="tripinfo_28" vType="DEFAULT_VEHTYPE" speedFactor="1.00" vaporized=""/>
    <tripinfo id="29" depart="40.00" departLane="road3_0" departPos="5.10" departSpeed="0.00" departDelay="5.20" arrival="136.00" arrivalLane="-road4_0" arrivalPos="195.25" arrivalSpeed="12.96" duration="96.00" routeLength="395.72" waitSteps="41" timeLoss="67.51" rerouteNo="0" devices="tripinfo_29" vType="DEFAULT_VEHTYPE" speedFactor="1.00" vaporized=""/>
    <tripinfo id="36" depart="43.00" departLane="road3_0" departPos="5.10" departSpeed="0.00" departDelay="-0.20" arrival="138.00" arrivalLane="road1_0" arrivalPos="195.25" arrivalSpeed="12.73" duration="95.00" routeLength="394.90" waitSteps="40" timeLoss="66.24" rerouteNo="0" devices="tripinfo_36" vType="DEFAULT_VEHTYPE" speedFactor="1.00" vaporized=""/>
    <tripinfo id="91" depart="109.00" departLane="-road1_0" departPos="5.10" departSpeed="0.00" departDelay="-0.20" arrival="143.00" arrivalLane="-road3_0" arrivalPos="195.25" arrivalSpeed="12.71" duration="34.00" routeLength="394.90" waitSteps="0" timeLoss="4.68" rerouteNo="0" devices="tripinfo_91" vType="DEFAULT_VEHTYPE" speedFactor="1.00" vaporized=""/>
    <tripinfo id="45" depart="54.00" departLane="road3_0" departPos="5.10" departSpeed="0.00" departDelay="0.00" arrival="146.00" arrivalLane="-road4_0" arrivalPos="195.25" arrivalSpeed="13.00" duration="92.00" routeLength="395.72" waitSteps="30" timeLoss="63.31" rerouteNo="0" devices="tripinfo_45" vType="DEFAULT_VEHTYPE" speedFactor="1.00" vaporized=""/>
    <tripinfo id="46" depart="57.00" departLane="road3_0" departPos="5.10" departSpeed="0.00" departDelay="1.80" arrival="148.00" arrivalLane="-road4_0" arrivalPos="195.25" arrivalSpeed="13.06" duration="91.00" routeLength="395.72" waitSteps="28" timeLoss="62.22" rerouteNo="0" devices="tripinfo_46" vType="DEFAULT_VEHTYPE" speedFactor="1.00" vaporized=""/>
    <tripinfo id="43" depart="51.00" departLane="road4_0" departPos="5.10" departSpeed="0.00" departDelay="-0.60" arrival="155.00" arrivalLane="-road3_0" arrivalPos="195.25" arrivalSpeed="13.60" duration="104.00" routeLength="390.40" waitSteps="65" timeLoss="75.61" rerouteNo="0" devices="tripinfo_43" vType="DEFAULT_VEHTYPE" speedFactor="1.00" vaporized=""/>
    <tripinfo id="39" depart="46.00" departLane="road2_0" departPos="5.10" departSpeed="0.00" departDelay="-0.80" arrival="155.00" arrivalLane="road1_0" arrivalPos="195.25" arrivalSpeed="13.21" duration="109.00" routeLength="390.40" waitSteps="71" timeLoss="79.96" rerouteNo="0" devices="tripinfo_39" vType="DEFAULT_VEHTYPE" speedFactor="1.00" vaporized=""/>
    <tripinfo id="40" depart="49.00" departLane="road2_0" departPos="5.10" departSpeed="0.00" departDelay="1.00" arrival="157.00" arrivalLane="road1_0" arrivalPos="195.25" arrivalSpeed="12.69" duration="108.00" routeLength="390.40" waitSteps="69" timeLoss="79.19" rerouteNo="0" devices="tripinfo_40" vType="DEFAULT_VEHTYPE" speedFactor="1.00" vaporized=""/>
    <tripinfo id="47" depart="56.00" departLane="road4_0" departPos="5.10" departSpeed="0.00" departDelay="-0.40" arrival="157.00" arrivalLane="-road2_0" arrivalPos="195.25" arrivalSpeed="13.70" duration="101.00" routeLength="394.90" waitSteps="62" timeLoss="71.60" rerouteNo="0" devices="tripinfo_47" vType="DEFAULT_VEHTYPE" speedFactor="1.00" vaporized=""/>
    <tripinfo id="44" depart="52.00" departLane="road2_0" departPos="5.10" departSpeed="0.00" departDelay="-0.80" arrival="159.00" arrivalLane="road1_0" arrivalPos="195.25" arrivalSpeed="13.69" duration="107.00" routeLength="390.40" waitSteps="67" timeLoss="77.93" rerouteNo="0" devices="tripinfo_44" vType="DEFAULT_VEHTYPE" speedFactor="1.00" vaporized=""/>
    <tripinfo id="51" depart="61.00" departLane="road4_0" departPos="5.10" departSpeed="0.00" departDelay="-0.20" arrival="161.00" arrivalLane="road1_0" arrivalPos="195.25" arrivalSpeed="12.73" duration="100.00" routeLength="395.72" waitSteps="59" timeLoss="70.79" rerouteNo="0" devices="tripinfo_51" vType="DEFAULT_VEHTYPE" speedFactor="1.00" vaporized=""/>
    <tripinfo id="52" depart="62.00" departLane="road2_0" departPos="5.10" departSpeed="0.00" departDelay="-0.40" arrival="162.00" arrivalLane="-road3_0" arrivalPos="195.25" arrivalSpeed="13.02" duration="100.00" routeLength="395.72" waitSteps="59" timeLoss="70.81" rerouteNo="0" devices="tripinfo_52" vType="DEFAULT_VEHTYPE" speedFactor="1.00" vaporized=""/>
    <tripinfo id="54" depart="64.00" departLane="road2_0" departPos="5.10" departSpeed="0.00" departDelay="-0.80" arrival="163.00" arrivalLane="-road4_0" arrivalPos="195.25" arrivalSpeed="13.00" duration="99.00" routeLength="394.90" waitSteps="57" timeLoss="70.32" rerouteNo="0" devices="tripinfo_54" vType="DEFAULT_VEHTYPE" speedFactor="1.00" vaporized=""/>
    <tripinfo id="56" depart="68.00" departLane="road2_0" departPos="5.10" departSpeed="0.00" departDelay="0.80" arrival="165.00" arrivalLane="road1_0" arrivalPos="195.25" arrivalSpeed="13.01" duration="97.00" routeLength="390.40" waitSteps="57" timeLoss="67.99" rerouteNo="0" devices="tripinfo_56" vType="DEFAULT_VEHTYPE" speedFactor="1.00" vaporized=""/>
    <tripinfo id="57" depart="71.00" departLane="road2_0" departPos="5.10" departSpeed="0.00" departDelay="2.60" arrival="167.00" arrivalLane="-road4_0" arrivalPos="195.25" arrivalSpeed="12.80" duration="96.00" routeLength="394.90" waitSteps="54" timeLoss="66.74" rerouteNo="0" devices="tripinfo_57" vType="DEFAULT_VEHTYPE" speedFactor="1.00" vaporized=""/>
    <tripinfo id="58" depart="74.00" departLane="road2_0" departPos="5.10" departSpeed="0.00" departDelay="4.40" arrival="169.00" arrivalLane="-road4_0" arrivalPos="195.25" arrivalSpeed="12.65" duration="95.00" routeLength="394.90" waitSteps="52" timeLoss="65.74" rerouteNo="0" devices="tripinfo_58" vType="DEFAULT_VEHTYPE" speedFactor="1.00" vaporized=""/>
    <tripinfo id="64" depart="77.00" departLane="road2_0" departPos="5.10" departSpeed="0.00" departDelay="0.20" arrival="170.00" arrivalLane="-road4_0" arrivalPos="195.25" arrivalSpeed="13.14" duration="93.00" routeLength="394.90" waitSteps="51" timeLoss="64.46" rerouteNo="0" devices="tripinfo_64" vType="DEFAULT_VEHTYPE" speedFactor="1.00" vaporized=""/>
    <tripinfo id="75" depart="90.00" departLane="road2_0" departPos="5.10" departSpeed="0.00" departDelay="0.00" arrival="172.00" arrivalLane="-road4_0" arrivalPos="195.25" arrivalSpeed="12.71" duration="82.00" routeLength="394.90" waitSteps="42" timeLoss="53.24" rerouteNo="0" devices="tripinfo_75" vType="DEFAULT_VEHTYPE" speedFactor="1.00" vaporized=""/>
    <tripinfo id="60" depart="72.00" departLane="road4_0" departPos="5.10" departSpeed="0.00" departDelay="0.00" arrival="176.00" arrivalLane="road1_0" arrivalPos="195.25" arrivalSpeed="13.56" duration="104.00" routeLength="395.72" waitSteps="59" timeLoss="74.66" rerouteNo="0" devices="tripinfo_60" vType="DEFAULT_VEHTYPE" speedFactor="1.00" vaporized=""/>
    <tripinfo id="61" depart="75.00" departLane="road4_0" departPos="5.10" departSpeed="0.00" departDelay="1.80" arrival="177.00" arrivalLane="-road2_0" arrivalPos="195.25" arrivalSpeed="12.90" duration="102.00" routeLength="394.90" waitSteps="52" timeLoss="73.26" rerouteNo="0" devices="tripinfo_61" vType="DEFAULT_VEHTYPE" speedFactor="1.00" vaporized=""/>
    <tripinfo id="67" depart="80.00" departLane="road4_0" departPos="5.10" departSpeed="0.00" departDelay="-0.40" arrival="179.00" arrivalLane="-road2_0" arrivalPos="195.25" arrivalSpeed="12.81" duration="99.00" routeLength="394.90" waitSteps="50" timeLoss="70.02" rerouteNo="0" devices="tripinfo_67" vType="DEFAULT_VEHTYPE" speedFactor="1.00" vaporized=""/>
    <tripinfo id="74" depart="88.00" departLane="road4_0" departPos="5.10" departSpeed="0.00" departDelay="-0.80" arrival="182.00" arrivalLane="road1_0" arrivalPos="195.25" arrivalSpeed="12.89" duration="94.00" routeLength="395.72" waitSteps="42" timeLoss="65.11" rerouteNo="0" devices="tripinfo_74" vType="DEFAULT_VEHTYPE" speedFactor="1.00" vaporized=""/>
    <tripinfo id="84" depart="100.00" departLane="road4_0" departPos="5.10" departSpeed="0.00" departDelay="-0.80" arrival="183.00" arrivalLane="-road3_0" arrivalPos="195.25" arrivalSpeed="13.75" duration="83.00" routeLength="390.40" waitSteps="29" timeLoss="54.79" rerouteNo="0" devices="tripinfo_84" vType="DEFAULT_VEHTYPE" speedFactor="1.00" vaporized=""/>
    <tripinfo id="86" depart="103.00" departLane="road4_0" departPos="5.10" departSpeed="0.00" departDelay="-0.20" arrival="187.00" arrivalLane="road1_0" arrivalPos="195.25" arrivalSpeed="13.63" duration="84.00" routeLength="395.72" waitSteps="29" timeLoss="54.56" rerouteNo="0" devices="tripinfo_86" vType="DEFAULT_VEHTYPE" speedFactor="1.00" vaporized=""/>
    <tripinfo id="80" depart="96.00" departLane="road2_0" departPos="5.10" departSpeed="0.00" departDelay="0.00" arrival="187.00" arrivalLane="-road3_0" arrivalPos="195.25" arrivalSpeed="13.74" duration="91.00" routeLength="395.72" waitSteps="45" timeLoss="61.81" rerouteNo="0" devices="tripinfo_80" vType="DEFAULT_VEHTYPE" speedFactor="1.00" vaporized=""/>
    <tripinfo id="83" depart="99.00" departLane="road2_0" departPos="5.10" departSpeed="0.00" departDelay="-0.60" arrival="189.00" arrivalLane="-road3_0" arrivalPos="195.25" arrivalSpeed="13.83" duration="90.00" routeLength="395.72" waitSteps="40" timeLoss="61.33" rerouteNo="0" devices="tripinfo_83" vType="DEFAULT_VEHTYPE" speedFactor="1.00" vaporized=""/>
    <tripinfo id="87" depart="106.00" departLane="road4_0" departPos="5.10" departSpeed="0.00" departDelay="1.60" arrival="190.00" arrivalLane="road1_0" arrivalPos="195.25" arrivalSpeed="13.27" duration="84.00" routeLength="395.72" waitSteps="27" timeLoss="54.81" rerouteNo="0" devices="tripinfo_87" vType="DEFAULT_VEHTYPE" speedFactor="1.00" vaporized=""/>
    <tripinfo id="99" depart="118.00" departLane="road4_0" departPos="5.10" departSpeed="0.00" departDelay="-0.80" arrival="191.00" arrivalLane="-road3_0" arrivalPos="195.25" arrivalSpeed="12.72" duration="73.00" routeLength="390.40" waitSteps="18" timeLoss="44.66" rerouteNo="0" devices="tripinfo_99" vType="DEFAULT_VEHTYPE" speedFactor="1.00" vaporized=""/>
    <tripinfo id="106" depart="127.00" departLane="road4_0" departPos="5.10" departSpeed="0.00" departDelay="-0.20" arrival="195.00" arrivalLane="road1_0" arrivalPos="195.25" arrivalSpeed="13.64" duration="68.00" routeLength="395.72" waitSteps="11" timeLoss="39.40" rerouteNo="0" devices="tripinfo_106" vType="DEFAULT_VEHTYPE" speedFactor="1.00" vaporized=""/>
    <tripinfo id="110" depart="132.00" departLane="road4_0" departPos="5.10" departSpeed="0.00" departDelay="0.00" arrival="197.00" arrivalLane="-road2_0" arrivalPos="195.25" arrivalSpeed="13.43" duration="65.00" routeLength="394.90" waitSteps="6" timeLoss="35.94" rerouteNo="0" devices="tripinfo_110" vType="DEFAULT_VEHTYPE" speedFactor="1.00" vaporized=""/>
    <tripinfo id="113" depart="135.00" departLane="road4_0" departPos="5.10" departSpeed="0.00" departDelay="-0.60" arrival="199.00" arrivalLane="-road2_0" arrivalPos="195.25" arrivalSpeed="13.67" duration="64.00" routeLength="394.90" waitSteps="2" timeLoss="34.93" rerouteNo="0" devices="tripinfo_113" vType="DEFAULT_VEHTYPE" speedFactor="1.00" vaporized=""/>
    <tripinfo id="85" depart="102.00" departLane="road2_0" departPos="5.10" departSpeed="0.00" departDelay="0.00" arrival="202.00" arrivalLane="-road3_0" arrivalPos="195.25" arrivalSpeed="13.31" duration="100.00" routeLength="395.72" waitSteps="48" timeLoss="71.35" rerouteNo="0" devices="tripinfo_85" vType="DEFAULT_VEHTYPE" speedFactor="1.00" vaporized=""/>
    <tripinfo id="88" depart="105.00" departLane="road2_0" departPos="5.10" departSpeed="0.00" departDelay="-0.60" arrival="203.00" arrivalLane="-road4_0" arrivalPos="195.25" arrivalSpeed="13.38" duration="98.00" routeLength="394.90" waitSteps="42" timeLoss="69.13" rerouteNo="0" devices="tripinfo_88" vType="DEFAULT_VEHTYPE" speedFactor="1.00" vaporized=""/>
    <tripinfo id="90" depart="108.00" departLane="road2_0" departPos="5.10" departSpeed="0.00" departDelay="0.00" arrival="205.00" arrivalLane="-road4_0" arrivalPos="195.25" arrivalSpeed="12.65" duration="97.00" routeLength="394.90" waitSteps="42" timeLoss="68.44" rerouteNo="0" devices="tripinfo_90" vType="DEFAULT_VEHTYPE" speedFactor="1.00" vaporized=""/>
    <tripinfo id="94" depart="112.00" departLane="road2_0" departPos="5.10" departSpeed="0.00" departDelay="-0.80" arrival="207.00" arrivalLane="-road4_0" arrivalPos="195.25" arrivalSpeed="13.32" duration="95.00" routeLength="394.90" waitSteps="37" timeLoss="66.13" rerouteNo="0" devices="tripinfo_94" vType="DEFAULT_VEHTYPE" speedFactor="1.00" vaporized=""/>
    <tripinfo id="98" depart="117.00" departLane="road2_0" departPos="5.10" departSpeed="0.00" departDelay="-0.60" arrival="209.00" arrivalLane="-road4_0" arrivalPos="195.25" arrivalSpeed="13.43" duration="92.00" routeLength="394.90" waitSteps="32" timeLoss="62.97" rerouteNo="0" devices="tripinfo_98" vType="DEFAULT_VEHTYPE" speedFactor="1.00" vaporized=""/>
    <tripinfo id="100" depart="120.00" departLane="road2_0" departPos="5.10" departSpeed="0.00" departDelay="0.00" arrival="212.00" arrivalLane="-road3_0" arrivalPos="195.25" arrivalSpeed="13.05" duration="92.00" routeLength="395.72" waitSteps="29" timeLoss="62.66" rerouteNo="0" devices="tripinfo_100" vType="DEFAULT_VEHTYPE" speedFactor="1.00" vaporized=""/>
    <tripinfo id="122" depart="146.00" departLane="road4_0" departPos="5.10" departSpeed="0.00" departDelay="-0.40" arrival="213.00" arrivalLane="road1_0" arrivalPos="195.25" arrivalSpeed="13.11" duration="67.00" routeLength="395.72" waitSteps="6" timeLoss="38.06" rerouteNo="0" devices="tripinfo_122" vType="DEFAULT_VEHTYPE" speedFactor="1.00" vaporized=""/>
    <tripinfo id="101" depart="123.00" departLane="road2_0" departPos="5.10" departSpeed="0.00" departDelay="1.80" arrival="215.00" arrivalLane="road1_0" arrivalPos="195.25" arrivalSpeed="13.63" duration="92.00" routeLength="390.40" waitSteps="27" timeLoss="63.14" rerouteNo="0" devices="tripinfo_101" vType="DEFAULT_VEHTYPE" speedFactor="1.00" vaporized=""/>
    <tripinfo id="123" depart="149.00" departLane="road4_0" departPos="5.10" departSpeed="0.00" departDelay="1.40" arrival="217.00" arrivalLane="road1_0" arrivalPos="195.25" arrivalSpeed="12.59" duration="68.00" routeLength="395.72" waitSteps="7" timeLoss="39.23" rerouteNo="0" devices="tripinfo_123" vType="DEFAULT_VEHTYPE" speedFactor="1.00" vaporized=""/>
    <tripinfo id="127" depart="152.00" departLane="road4_0" departPos="5.10" departSpeed="0.00" departDelay="-0.40" arrival="219.00" arrivalLane="road1_0" arrivalPos="195.25" arrivalSpeed="13.87" duration="67.00" routeLength="395.72" waitSteps="5" timeLoss="38.15" rerouteNo="0" devices="tripinfo_127" vType="DEFAULT_VEHTYPE" speedFactor="1.00" vaporized=""/>
    <tripinfo id="53" depart="63.00" departLane="road3_0" departPos="5.10" departSpeed="0.00" departDelay="-0.60" arrival="225.00" arrivalLane="-road2_0" arrivalPos="195.25" arrivalSpeed="13.45" duration="162.00" routeLength="390.40" waitSteps="95" timeLoss="133.82" rerouteNo="0" devices="tripinfo_53" vType="DEFAULT_VEHTYPE" speedFactor="1.00" vaporized=""/>
    <tripinfo id="72" depart="86.00" departLane="road3_0" departPos="5.10" departSpeed="0.00" departDelay="-0.40" arrival="227.00" arrivalLane="-road2_0" arrivalPos="195.25" arrivalSpeed="13.60" duration="141.00" routeLength="390.40" waitSteps="79" timeLoss="112.53" rerouteNo="0" devices="tripinfo_72" vType="DEFAULT_VEHTYPE" speedFactor="1.00" vaporized=""/>
    <tripinfo id="112" depart="134.00" departLane="-road1_0" departPos="5.10" departSpeed="0.00" departDelay="-0.40" arrival="230.00" arrivalLane="-road2_0" arrivalPos="195.25" arrivalSpeed="13.63" duration="96.00" routeLength="395.72" waitSteps="56" timeLoss="67.46" rerouteNo="0" devices="tripinfo_112" vType="DEFAULT_VEHTYPE" speedFactor="1.00" vaporized=""/>
    <tripinfo id="125" depart="150.00" departLane="-road1_0" departPos="5.10" departSpeed="0.00" departDelay="0.00" arrival="231.00" arrivalLane="-road4_0" arrivalPos="195.25" arrivalSpeed="12.79" duration="81.00" routeLength="390.40" waitSteps="38" timeLoss="52.72" rerouteNo="0" devices="tripinfo_125" vType="DEFAULT_VEHTYPE" speedFactor="1.00" vaporized=""/>
    <tripinfo id="128" depart="153.00" departLane="-road1_0" departPos="5.10" departSpeed="0.00" departDelay="-0.60" arrival="234.00" arrivalLane="-road3_0" arrivalPos="195.25" arrivalSpeed="12.82" duration="81.00" routeLength="394.90" waitSteps="37" timeLoss="51.90" rerouteNo="0" devices="tripinfo_128" vType="DEFAULT_VEHTYPE" speedFactor="1.00" vaporized=""/>
    <tripinfo id="142" depart="170.00" departLane="-road1_0" departPos="5.10" departSpeed="0.00" departDelay="-0.40" arrival="235.00" arrivalLane="-road4_0" arrivalPos="195.25" arrivalSpeed="12.64" duration="65.00" routeLength="390.40" waitSteps="21" timeLoss="36.74" rerouteNo="0" devices="tripinfo_142" vType="DEFAULT_VEHTYPE" speedFactor="1.00" vaporized=""/>