<?xml version="1.0" encoding="UTF-8"?>

<!-- generated on 9/1/2018 8:11:56 PM by SUMO gui Version 0.32.0
<?xml version="1.0" encoding="UTF-8"?>

<configuration xmlns:xsi="http://www.w3.org/2001/XMLSchema-instance" xsi:noNamespaceSchemaLocation="http://sumo.dlr.de/xsd/sumoConfiguration.xsd">

    <input>
        <net-file value="..\..\test_environments\single_intersection_random_trips\newnet.net.xml"/>
        <route-files value="..\..\test_environments\single_intersection_random_trips\newnet.rou.xml"/>
    </input>

    <output>
        <tripinfo-output value="tripinfo.xml"/>
    </output>

    <time>
        <begin value="0"/>
        <end value="10000"/>
    </time>

    <processing>
        <time-to-teleport value="-1"/>
    </processing>

    <traci_server>
        <remote-port value="42393"/>
    </traci_server>

</configuration>
-->

<tripinfos xmlns:xsi="http://www.w3.org/2001/XMLSchema-instance" xsi:noNamespaceSchemaLocation="http://sumo.dlr.de/xsd/tripinfo_file.xsd">
    <tripinfo id="1" depart="1.00" departLane="road3_0" departPos="5.10" departSpeed="0.00" departDelay="-0.20" arrival="34.00" arrivalLane="road1_0" arrivalPos="195.25" arrivalSpeed="13.73" duration="33.00" routeLength="394.90" waitSteps="0" timeLoss="4.23" rerouteNo="0" devices="tripinfo_1" vType="DEFAULT_VEHTYPE" speedFactor="1.00" vaporized=""/>
    <tripinfo id="4" depart="4.00" departLane="road3_0" departPos="5.10" departSpeed="0.00" departDelay="-0.80" arrival="40.00" arrivalLane="-road4_0" arrivalPos="195.25" arrivalSpeed="12.61" duration="36.00" routeLength="395.72" waitSteps="0" timeLoss="6.94" rerouteNo="0" devices="tripinfo_4" vType="DEFAULT_VEHTYPE" speedFactor="1.00" vaporized=""/>
    <tripinfo id="7" depart="8.00" departLane="road3_0" departPos="5.10" departSpeed="0.00" departDelay="-0.40" arrival="41.00" arrivalLane="road1_0" arrivalPos="195.25" arrivalSpeed="12.60" duration="33.00" routeLength="394.90" waitSteps="0" timeLoss="4.36" rerouteNo="0" devices="tripinfo_7" vType="DEFAULT_VEHTYPE" speedFactor="1.00" vaporized=""/>
    <tripinfo id="5" depart="6.00" departLane="-road1_0" departPos="5.10" departSpeed="0.00" departDelay="0.00" arrival="45.00" arrivalLane="-road2_0" arrivalPos="195.25" arrivalSpeed="13.15" duration="39.00" routeLength="395.72" waitSteps="0" timeLoss="9.59" rerouteNo="0" devices="tripinfo_5" vType="DEFAULT_VEHTYPE" speedFactor="1.00" vaporized=""/>
    <tripinfo id="6" depart="9.00" departLane="-road1_0" departPos="5.10" departSpeed="0.00" departDelay="1.80" arrival="45.00" arrivalLane="-road3_0" arrivalPos="195.25" arrivalSpeed="13.41" duration="36.00" routeLength="394.90" waitSteps="0" timeLoss="7.30" rerouteNo="0" devices="tripinfo_6" vType="DEFAULT_VEHTYPE" speedFactor="1.00" vaporized=""/>
    <tripinfo id="8" depart="11.00" departLane="road3_0" departPos="5.10" departSpeed="0.00" departDelay="1.40" arrival="46.00" arrivalLane="-road2_0" arrivalPos="195.25" arrivalSpeed="12.83" duration="35.00" routeLength="390.40" waitSteps="0" timeLoss="6.76" rerouteNo="0" devices="tripinfo_8" vType="DEFAULT_VEHTYPE" speedFactor="1.00" vaporized=""/>
    <tripinfo id="10" depart="12.00" departLane="-road1_0" departPos="5.10" departSpeed="0.00" departDelay="0.00" arrival="48.00" arrivalLane="-road2_0" arrivalPos="195.25" arrivalSpeed="13.42" duration="36.00" routeLength="395.72" waitSteps="0" timeLoss="7.30" rerouteNo="0" devices="tripinfo_10" vType="DEFAULT_VEHTYPE" speedFactor="1.00" vaporized=""/>
    <tripinfo id="11" depart="13.00" departLane="road4_0" departPos="5.10" departSpeed="0.00" departDelay="-0.20" arrival="48.00" arrivalLane="-road3_0" arrivalPos="195.25" arrivalSpeed="13.23" duration="35.00" routeLength="390.40" waitSteps="0" timeLoss="6.18" rerouteNo="0" devices="tripinfo_11" vType="DEFAULT_VEHTYPE" speedFactor="1.00" vaporized=""/>
    <tripinfo id="9" depart="14.00" departLane="road3_0" departPos="5.10" departSpeed="0.00" departDelay="3.20" arrival="50.00" arrivalLane="road1_0" arrivalPos="195.25" arrivalSpeed="13.27" duration="36.00" routeLength="394.90" waitSteps="0" timeLoss="7.08" rerouteNo="0" devices="tripinfo_9" vType="DEFAULT_VEHTYPE" speedFactor="1.00" vaporized=""/>
    <tripinfo id="13" depart="15.00" departLane="road2_0" departPos="5.10" departSpeed="0.00" departDelay="-0.60" arrival="54.00" arrivalLane="-road3_0" arrivalPos="195.25" arrivalSpeed="13.64" duration="39.00" routeLength="395.72" waitSteps="0" timeLoss="9.61" rerouteNo="0" devices="tripinfo_13" vType="DEFAULT_VEHTYPE" speedFactor="1.00" vaporized=""/>
    <tripinfo id="14" depart="17.00" departLane="road3_0" departPos="5.10" departSpeed="0.00" departDelay="0.20" arrival="56.00" arrivalLane="-road4_0" arrivalPos="195.25" arrivalSpeed="13.19" duration="39.00" routeLength="395.72" waitSteps="0" timeLoss="9.75" rerouteNo="0" devices="tripinfo_14" vType="DEFAULT_VEHTYPE" speedFactor="1.00" vaporized=""/>
    <tripinfo id="12" depart="16.00" departLane="road4_0" departPos="5.10" departSpeed="0.00" departDelay="1.60" arrival="57.00" arrivalLane="-road2_0" arrivalPos="195.25" arrivalSpeed="13.03" duration="41.00" routeLength="394.90" waitSteps="4" timeLoss="12.04" rerouteNo="0" devices="tripinfo_12" vType="DEFAULT_VEHTYPE" speedFactor="1.00" vaporized=""/>
    <tripinfo id="19" depart="22.00" departLane="-road1_0" departPos="5.10" departSpeed="0.00" departDelay="-0.80" arrival="58.00" arrivalLane="-road4_0" arrivalPos="195.25" arrivalSpeed="13.58" duration="36.00" routeLength="390.40" waitSteps="0" timeLoss="7.39" rerouteNo="0" devices="tripinfo_19" vType="DEFAULT_VEHTYPE" speedFactor="1.00" vaporized=""/>
    <tripinfo id="15" depart="20.00" departLane="road3_0" departPos="5.10" departSpeed="0.00" departDelay="2.00" arrival="60.00" arrivalLane="road1_0" arrivalPos="195.25" arrivalSpeed="13.17" duration="40.00" routeLength="394.90" waitSteps="0" timeLoss="11.23" rerouteNo="0" devices="tripinfo_15" vType="DEFAULT_VEHTYPE" speedFactor="1.00" vaporized=""/>
    <tripinfo id="18" depart="21.00" departLane="road4_0" departPos="5.10" departSpeed="0.00" departDelay="-0.60" arrival="60.00" arrivalLane="-road3_0" arrivalPos="195.25" arrivalSpeed="13.66" duration="39.00" routeLength="390.40" waitSteps="0" timeLoss="10.37" rerouteNo="0" devices="tripinfo_18" vType="DEFAULT_VEHTYPE" speedFactor="1.00" vaporized=""/>
    <tripinfo id="16" depart="23.00" departLane="road3_0" departPos="5.10" departSpeed="0.00" departDelay="3.80" arrival="63.00" arrivalLane="-road4_0" arrivalPos="195.25" arrivalSpeed="13.84" duration="40.00" routeLength="395.72" waitSteps="0" timeLoss="10.92" rerouteNo="0" devices="tripinfo_16" vType="DEFAULT_VEHTYPE" speedFactor="1.00" vaporized=""/>
    <tripinfo id="24" depart="28.00" departLane="road3_0" departPos="5.10" departSpeed="0.00" departDelay="-0.80" arrival="65.00" arrivalLane="-road2_0" arrivalPos="195.25" arrivalSpeed="13.73" duration="37.00" routeLength="390.40" waitSteps="0" timeLoss="8.65" rerouteNo="0" devices="tripinfo_24" vType="DEFAULT_VEHTYPE" speedFactor="1.00" vaporized=""/>
    <tripinfo id="21" depart="25.00" departLane="road2_0" departPos="5.10" departSpeed="0.00" departDelay="-0.20" arrival="66.00" arrivalLane="-road4_0" arrivalPos="195.25" arrivalSpeed="13.27" duration="41.00" routeLength="394.90" waitSteps="3" timeLoss="12.01" rerouteNo="0" devices="tripinfo_21" vType="DEFAULT_VEHTYPE" speedFactor="1.00" vaporized=""/>
    <tripinfo id="26" depart="31.00" departLane="road3_0" departPos="5.10" departSpeed="0.00" departDelay="-0.20" arrival="67.00" arrivalLane="road1_0" arrivalPos="195.25" arrivalSpeed="13.51" duration="36.00" routeLength="394.90" waitSteps="0" timeLoss="6.92" rerouteNo="0" devices="tripinfo_26" vType="DEFAULT_VEHTYPE" speedFactor="1.00" vaporized=""/>
    <tripinfo id="25" depart="30.00" departLane="-road1_0" departPos="5.10" departSpeed="0.00" departDelay="0.00" arrival="69.00" arrivalLane="-road4_0" arrivalPos="195.25" arrivalSpeed="13.10" duration="39.00" routeLength="390.40" waitSteps="0" timeLoss="10.23" rerouteNo="0" devices="tripinfo_25" vType="DEFAULT_VEHTYPE" speedFactor="1.00" vaporized=""/>
    <tripinfo id="31" depart="37.00" departLane="-road1_0" departPos="5.10" departSpeed="0.00" departDelay="-0.20" arrival="71.00" arrivalLane="-road4_0" arrivalPos="195.25" arrivalSpeed="12.70" duration="34.00" routeLength="390.40" waitSteps="0" timeLoss="5.00" rerouteNo="0" devices="tripinfo_31" vType="DEFAULT_VEHTYPE" speedFactor="1.00" vaporized=""/>
    <tripinfo id="27" depart="34.00" departLane="road3_0" departPos="5.10" departSpeed="0.00" departDelay="1.60" arrival="73.00" arrivalLane="-road4_0" arrivalPos="195.25" arrivalSpeed="13.16" duration="39.00" routeLength="395.72" waitSteps="0" timeLoss="9.64" rerouteNo="0" devices="tripinfo_27" vType="DEFAULT_VEHTYPE" speedFactor="1.00" vaporized=""/>
    <tripinfo id="32" depart="38.00" departLane="road4_0" departPos="5.10" departSpeed="0.00" departDelay="-0.40" arrival="74.00" arrivalLane="road1_0" arrivalPos="195.25" arrivalSpeed="13.11" duration="36.00" routeLength="395.72" waitSteps="0" timeLoss="6.92" rerouteNo="0" devices="tripinfo_32" vType="DEFAULT_VEHTYPE" speedFactor="1.00" vaporized=""/>
    <tripinfo id="30" depart="36.00" departLane="road2_0" departPos="5.10" departSpeed="0.00" departDelay="0.00" arrival="74.00" arrivalLane="-road3_0" arrivalPos="195.25" arrivalSpeed="12.95" duration="38.00" routeLength="395.72" waitSteps="3" timeLoss="9.32" rerouteNo="0" devices="tripinfo_30" vType="DEFAULT_VEHTYPE" speedFactor="1.00" vaporized=""/>
    <tripinfo id="28" depart="37.00" departLane="road3_0" departPos="5.10" departSpeed="0.00" departDelay="3.40" arrival="76.00" arrivalLane="-road2_0" arrivalPos="195.25" arrivalSpeed="13.61" duration="39.00" routeLength="390.40" waitSteps="0" timeLoss="10.16" rerouteNo="0" devices="tripinfo_28" vType="DEFAULT_VEHTYPE" speedFactor="1.00" vaporized=""/>
    <tripinfo id="33" depart="41.00" departLane="road4_0" departPos="5.10" departSpeed="0.00" departDelay="1.40" arrival="77.00" arrivalLane="road1_0" arrivalPos="195.25" arrivalSpeed="12.65" duration="36.00" routeLength="395.72" waitSteps="0" timeLoss="6.77" rerouteNo="0" devices="tripinfo_33" vType="DEFAULT_VEHTYPE" speedFactor="1.00" vaporized=""/>
    <tripinfo id="35" depart="42.00" departLane="road2_0" departPos="5.10" departSpeed="0.00" departDelay="0.00" arrival="78.00" arrivalLane="-road3_0" arrivalPos="195.25" arrivalSpeed="13.51" duration="36.00" routeLength="395.72" waitSteps="0" timeLoss="6.86" rerouteNo="0" devices="tripinfo_35" vType="DEFAULT_VEHTYPE" speedFactor="1.00" vaporized=""/>
    <tripinfo id="38" depart="45.00" departLane="-road1_0" departPos="5.10" departSpeed="0.00" departDelay="-0.60" arrival="81.00" arrivalLane="-road2_0" arrivalPos="195.25" arrivalSpeed="13.87" duration="36.00" routeLength="395.72" waitSteps="0" timeLoss="6.58" rerouteNo="0" devices="tripinfo_38" vType="DEFAULT_VEHTYPE" speedFactor="1.00" vaporized=""/>
    <tripinfo id="39" depart="46.00" departLane="road2_0" departPos="5.10" departSpeed="0.00" departDelay="-0.80" arrival="82.00" arrivalLane="road1_0" arrivalPos="195.25" arrivalSpeed="13.06" duration="36.00" routeLength="390.40" waitSteps="1" timeLoss="7.51" rerouteNo="0" devices="tripinfo_39" vType="DEFAULT_VEHTYPE" speedFactor="1.00" vaporized=""/>
    <tripinfo id="29" depart="40.00" departLane="road3_0" departPos="5.10" departSpeed="0.00" departDelay="5.20" arrival="82.00" arrivalLane="-road4_0" arrivalPos="195.25" arrivalSpeed="13.25" duration="42.00" routeLength="395.72" waitSteps="1" timeLoss="12.73" rerouteNo="0" devices="tripinfo_29" vType="DEFAULT_VEHTYPE" speedFactor="1.00" vaporized=""/>
    <tripinfo id="37" depart="44.00" departLane="road4_0" departPos="5.10" departSpeed="0.00" departDelay="-0.40" arrival="83.00" arrivalLane="-road3_0" arrivalPos="195.25" arrivalSpeed="13.11" duration="39.00" routeLength="390.40" waitSteps="1" timeLoss="10.52" rerouteNo="0" devices="tripinfo_37" vType="DEFAULT_VEHTYPE" speedFactor="1.00" vaporized=""/>
    <tripinfo id="36" depart="43.00" departLane="road3_0" departPos="5.10" departSpeed="0.00" departDelay="-0.20" arrival="84.00" arrivalLane="road1_0" arrivalPos="195.25" arrivalSpeed="12.99" duration="41.00" routeLength="394.90" waitSteps="1" timeLoss="12.32" rerouteNo="0" devices="tripinfo_36" vType="DEFAULT_VEHTYPE" speedFactor="1.00" vaporized=""/>
    <tripinfo id="42" depart="50.00" departLane="-road1_0" departPos="5.10" departSpeed="0.00" departDelay="-0.40" arrival="85.00" arrivalLane="-road3_0" arrivalPos="195.25" arrivalSpeed="13.61" duration="35.00" routeLength="394.90" waitSteps="0" timeLoss="6.00" rerouteNo="0" devices="tripinfo_42" vType="DEFAULT_VEHTYPE" speedFactor="1.00" vaporized=""/>
    <tripinfo id="43" depart="51.00" departLane="road4_0" departPos="5.10" departSpeed="0.00" departDelay="-0.60" arrival="89.00" arrivalLane="-road3_0" arrivalPos="195.25" arrivalSpeed="12.77" duration="38.00" routeLength="390.40" waitSteps="0" timeLoss="9.79" rerouteNo="0" devices="tripinfo_43" vType="DEFAULT_VEHTYPE" speedFactor="1.00" vaporized=""/>
    <tripinfo id="40" depart="49.00" departLane="road2_0" departPos="5.10" departSpeed="0.00" departDelay="1.00" arrival="90.00" arrivalLane="road1_0" arrivalPos="195.25" arrivalSpeed="13.70" duration="41.00" routeLength="390.40" waitSteps="2" timeLoss="12.42" rerouteNo="0" devices="tripinfo_40" vType="DEFAULT_VEHTYPE" speedFactor="1.00" vaporized=""/>
    <tripinfo id="45" depart="54.00" departLane="road3_0" departPos="5.10" departSpeed="0.00" departDelay="0.00" arrival="90.00" arrivalLane="-road4_0" arrivalPos="195.25" arrivalSpeed="13.81" duration="36.00" routeLength="395.72" waitSteps="0" timeLoss="6.92" rerouteNo="0" devices="tripinfo_45" vType="DEFAULT_VEHTYPE" speedFactor="1.00" vaporized=""/>
    <tripinfo id="47" depart="56.00" departLane="road4_0" departPos="5.10" departSpeed="0.00" departDelay="-0.40" arrival="91.00" arrivalLane="-road2_0" arrivalPos="195.25" arrivalSpeed="13.02" duration="35.00" routeLength="394.90" waitSteps="0" timeLoss="6.06" rerouteNo="0" devices="tripinfo_47" vType="DEFAULT_VEHTYPE" speedFactor="1.00" vaporized=""/>
    <tripinfo id="44" depart="52.00" departLane="road2_0" departPos="5.10" departSpeed="0.00" departDelay="-0.80" arrival="92.00" arrivalLane="road1_0" arrivalPos="195.25" arrivalSpeed="12.73" duration="40.00" routeLength="390.40" waitSteps="0" timeLoss="11.36" rerouteNo="0" devices="tripinfo_44" vType="DEFAULT_VEHTYPE" speedFactor="1.00" vaporized=""/>
    <tripinfo id="46" depart="57.00" departLane="road3_0" departPos="5.10" departSpeed="0.00" departDelay="1.80" arrival="94.00" arrivalLane="-road4_0" arrivalPos="195.25" arrivalSpeed="13.56" duration="37.00" routeLength="395.72" waitSteps="0" timeLoss="7.81" rerouteNo="0" devices="tripinfo_46" vType="DEFAULT_VEHTYPE" speedFactor="1.00" vaporized=""/>
    <tripinfo id="51" depart="61.00" departLane="road4_0" departPos="5.10" departSpeed="0.00" departDelay="-0.20" arrival="96.00" arrivalLane="road1_0" arrivalPos="195.25" arrivalSpeed="12.94" duration="35.00" routeLength="395.72" waitSteps="0" timeLoss="6.43" rerouteNo="0" devices="tripinfo_51" vType="DEFAULT_VEHTYPE" speedFactor="1.00" vaporized=""/>
    <tripinfo id="53" depart="63.00" departLane="road3_0" departPos="5.10" departSpeed="0.00" departDelay="-0.60" arrival="97.00" arrivalLane="-road2_0" arrivalPos="195.25" arrivalSpeed="13.79" duration="34.00" routeLength="390.40" waitSteps="0" timeLoss="5.79" rerouteNo="0" devices="tripinfo_53" vType="DEFAULT_VEHTYPE" speedFactor="1.00" vaporized=""/>
    <tripinfo id="52" depart="62.00" departLane="road2_0" departPos="5.10" departSpeed="0.00" departDelay="-0.40" arrival="97.00" arrivalLane="-road3_0" arrivalPos="195.25" arrivalSpeed="13.05" duration="35.00" routeLength="395.72" waitSteps="0" timeLoss="6.44" rerouteNo="0" devices="tripinfo_52" vType="DEFAULT_VEHTYPE" speedFactor="1.00" vaporized=""/>
    <tripinfo id="54" depart="65.00" departLane="road2_0" departPos="5.10" departSpeed="0.00" departDelay="0.20" arrival="99.00" arrivalLane="-road4_0" arrivalPos="195.25" arrivalSpeed="12.94" duration="34.00" routeLength="394.90" waitSteps="0" timeLoss="4.87" rerouteNo="0" devices="tripinfo_54" vType="DEFAULT_VEHTYPE" speedFactor="1.00" vaporized=""/>
    <tripinfo id="56" depart="68.00" departLane="road2_0" departPos="5.10" departSpeed="0.00" departDelay="0.80" arrival="101.00" arrivalLane="road1_0" arrivalPos="195.25" arrivalSpeed="13.23" duration="33.00" routeLength="390.40" waitSteps="0" timeLoss="3.97" rerouteNo="0" devices="tripinfo_56" vType="DEFAULT_VEHTYPE" speedFactor="1.00" vaporized=""/>
    <tripinfo id="59" depart="70.00" departLane="-road1_0" departPos="5.10" departSpeed="0.00" departDelay="-0.80" arrival="103.00" arrivalLane="-road3_0" arrivalPos="195.25" arrivalSpeed="12.63" duration="33.00" routeLength="394.90" waitSteps="0" timeLoss="4.16" rerouteNo="0" devices="tripinfo_59" vType="DEFAULT_VEHTYPE" speedFactor="1.00" vaporized=""/>
    <tripinfo id="57" depart="71.00" departLane="road2_0" departPos="5.10" departSpeed="0.00" departDelay="2.60" arrival="106.00" arrivalLane="-road4_0" arrivalPos="195.25" arrivalSpeed="13.13" duration="35.00" routeLength="394.90" waitSteps="0" timeLoss="5.97" rerouteNo="0" devices="tripinfo_57" vType="DEFAULT_VEHTYPE" speedFactor="1.00" vaporized=""/>
    <tripinfo id="58" depart="74.00" departLane="road2_0" departPos="5.10" departSpeed="0.00" departDelay="4.40" arrival="108.00" arrivalLane="-road4_0" arrivalPos="195.25" arrivalSpeed="13.59" duration="34.00" routeLength="394.90" waitSteps="0" timeLoss="4.68" rerouteNo="0" devices="tripinfo_58" vType="DEFAULT_VEHTYPE" speedFactor="1.00" vaporized=""/>
    <tripinfo id="63" depart="75.00" departLane="-road1_0" departPos="5.10" departSpeed="0.00" departDelay="-0.60" arrival="109.00" arrivalLane="-road4_0" arrivalPos="195.25" arrivalSpeed="13.70" duration="34.00" routeLength="390.40" waitSteps="0" timeLoss="5.73" rerouteNo="0" devices="tripinfo_63" vType="DEFAULT_VEHTYPE" speedFactor="1.00" vaporized=""/>
    <tripinfo id="64" depart="76.00" departLane="road2_0" departPos="5.10" departSpeed="0.00" departDelay="-0.80" arrival="111.00" arrivalLane="-road4_0" arrivalPos="195.25" arrivalSpeed="13.00" duration="35.00" routeLength="394.90" waitSteps="0" timeLoss="6.53" rerouteNo="0" devices="tripinfo_64" vType="DEFAULT_VEHTYPE" speedFactor="1.00" vaporized=""/>
    <tripinfo id="60" depart="72.00" departLane="road4_0" departPos="5.10" departSpeed="0.00" departDelay="0.00" arrival="114.00" arrivalLane="road1_0" arrivalPos="195.25" arrivalSpeed="12.69" duration="42.00" routeLength="395.72" waitSteps="3" timeLoss="13.25" rerouteNo="0" devices="tripinfo_60" vType="DEFAULT_VEHTYPE" speedFactor="1.00" vaporized=""/>
    <tripinfo id="61" depart="75.00" departLane="road4_0" departPos="5.10" departSpeed="0.00" departDelay="1.80" arrival="118.00" arrivalLane="-road2_0" arrivalPos="195.25" arrivalSpeed="13.53" duration="43.00" routeLength="394.90" waitSteps="3" timeLoss="13.77" rerouteNo="0" devices="tripinfo_61" vType="DEFAULT_VEHTYPE" speedFactor="1.00" vaporized=""/>
    <tripinfo id="67" depart="80.00" departLane="road4_0" departPos="5.10" departSpeed="0.00" departDelay="-0.40" arrival="121.00" arrivalLane="-road2_0" arrivalPos="195.25" arrivalSpeed="13.39" duration="41.00" routeLength="394.90" waitSteps="1" timeLoss="12.29" rerouteNo="0" devices="tripinfo_67" vType="DEFAULT_VEHTYPE" speedFactor="1.00" vaporized=""/>
    <tripinfo id="75" depart="90.00" departLane="road2_0" departPos="5.10" departSpeed="0.00" departDelay="0.00" arrival="123.00" arrivalLane="-road4_0" arrivalPos="195.25" arrivalSpeed="12.68" duration="33.00" routeLength="394.90" waitSteps="0" timeLoss="4.10" rerouteNo="0" devices="tripinfo_75" vType="DEFAULT_VEHTYPE" speedFactor="1.00" vaporized=""/>
    <tripinfo id="72" depart="86.00" departLane="road3_0" departPos="5.10" departSpeed="0.00" departDelay="-0.40" arrival="124.00" arrivalLane="-road2_0" arrivalPos="195.25" arrivalSpeed="13.42" duration="38.00" routeLength="390.40" waitSteps="1" timeLoss="9.75" rerouteNo="0" devices="tripinfo_72" vType="DEFAULT_VEHTYPE" speedFactor="1.00" vaporized=""/>
    <tripinfo id="74" depart="88.00" departLane="road4_0" departPos="5.10" departSpeed="0.00" departDelay="-0.80" arrival="126.00" arrivalLane="road1_0" arrivalPos="195.25" arrivalSpeed="12.75" duration="38.00" routeLength="395.72" waitSteps="0" timeLoss="8.83" rerouteNo="0" devices="tripinfo_74" vType="DEFAULT_VEHTYPE" speedFactor="1.00" vaporized=""/>
    <tripinfo id="73" depart="89.00" departLane="road3_0" departPos="5.10" departSpeed="0.00" departDelay="1.40" arrival="129.00" arrivalLane="-road4_0" arrivalPos="195.25" arrivalSpeed="13.28" duration="40.00" routeLength="395.72" waitSteps="0" timeLoss="10.82" rerouteNo="0" devices="tripinfo_73" vType="DEFAULT_VEHTYPE" speedFactor="1.00" vaporized=""/>
    <tripinfo id="81" depart="97.00" departLane="-road1_0" departPos="5.10" departSpeed="0.00" departDelay="-0.20" arrival="132.00" arrivalLane="-road4_0" arrivalPos="195.25" arrivalSpeed="12.92" duration="35.00" routeLength="390.40" waitSteps="0" timeLoss="6.23" rerouteNo="0" devices="tripinfo_81" vType="DEFAULT_VEHTYPE" speedFactor="1.00" vaporized=""/>
    <tripinfo id="80" depart="96.00" departLane="road2_0" departPos="5.10" departSpeed="0.00" departDelay="0.00" arrival="132.00" arrivalLane="-road3_0" arrivalPos="195.25" arrivalSpeed="12.66" duration="36.00" routeLength="395.72" waitSteps="0" timeLoss="6.63" rerouteNo="0" devices="tripinfo_80" vType="DEFAULT_VEHTYPE" speedFactor="1.00" vaporized=""/>
    <tripinfo id="76" depart="92.00" departLane="road3_0" departPos="5.10" departSpeed="0.00" departDelay="0.80" arrival="134.00" arrivalLane="-road2_0" arrivalPos="195.25" arrivalSpeed="12.82" duration="42.00" routeLength="390.40" waitSteps="0" timeLoss="13.01" rerouteNo="0" devices="tripinfo_76" vType="DEFAULT_VEHTYPE" speedFactor="1.00" vaporized=""/>
    <tripinfo id="77" depart="95.00" departLane="road3_0" departPos="5.10" departSpeed="0.00" departDelay="2.60" arrival="136.00" arrivalLane="road1_0" arrivalPos="195.25" arrivalSpeed="13.08" duration="41.00" routeLength="394.90" waitSteps="0" timeLoss="11.92" rerouteNo="0" devices="tripinfo_77" vType="DEFAULT_VEHTYPE" speedFactor="1.00" vaporized=""/>
    <tripinfo id="84" depart="100.00" departLane="road4_0" departPos="5.10" departSpeed="0.00" departDelay="-0.80" arrival="137.00" arrivalLane="-road3_0" arrivalPos="195.25" arrivalSpeed="12.86" duration="37.00" routeLength="390.40" waitSteps="0" timeLoss="8.18" rerouteNo="0" devices="tripinfo_84" vType="DEFAULT_VEHTYPE" speedFactor="1.00" vaporized=""/>
    <tripinfo id="83" depart="99.00" departLane="road2_0" departPos="5.10" departSpeed="0.00" departDelay="-0.60" arrival="139.00" arrivalLane="-road3_0" arrivalPos="195.25" arrivalSpeed="13.69" duration="40.00" routeLength="395.72" waitSteps="0" timeLoss="11.11" rerouteNo="0" devices="tripinfo_83" vType="DEFAULT_VEHTYPE" speedFactor="1.00" vaporized=""/>
    <tripinfo id="86" depart="103.00" departLane="road4_0" departPos="5.10" departSpeed="0.00" departDelay="-0.20" arrival="140.00" arrivalLane="road1_0" arrivalPos="195.25" arrivalSpeed="12.97" duration="37.00" routeLength="395.72" waitSteps="0" timeLoss="7.79" rerouteNo="0" devices="tripinfo_86" vType="DEFAULT_VEHTYPE" speedFactor="1.00" vaporized=""/>
    <tripinfo id="87" depart="106.00" departLane="road4_0" departPos="5.10" departSpeed="0.00" departDelay="1.60" arrival="142.00" arrivalLane="road1_0" arrivalPos="195.25" arrivalSpeed="13.64" duration="36.00" routeLength="395.72" waitSteps="0" timeLoss="6.55" rerouteNo="0" devices="tripinfo_87" vType="DEFAULT_VEHTYPE" speedFactor="1.00" vaporized=""/>
    <tripinfo id="85" depart="102.00" departLane="road2_0" departPos="5.10" departSpeed="0.00" departDelay="0.00" arrival="143.00" arrivalLane="-road3_0" arrivalPos="195.25" arrivalSpeed="13.18" duration="41.00" routeLength="395.72" waitSteps="1" timeLoss="12.06" rerouteNo="0" devices="tripinfo_85" vType="DEFAULT_VEHTYPE" speedFactor="1.00" vaporized=""/>
    <tripinfo id="78" depart="98.00" departLane="road3_0" departPos="5.10" departSpeed="0.00" departDelay="4.40" arrival="145.00" arrivalLane="road1_0" arrivalPos="195.25" arrivalSpeed="13.44" duration="47.00" routeLength="394.90" waitSteps="2" timeLoss="17.96" rerouteNo="0" devices="tripinfo_78" vType="DEFAULT_VEHTYPE" speedFactor="1.00" vaporized=""/>
    <tripinfo id="92" depart="110.00" departLane="road3_0" departPos="5.10" departSpeed="0.00" departDelay="-0.40" arrival="146.00" arrivalLane="-road2_0" arrivalPos="195.25" arrivalSpeed="13.44" duration="36.00" routeLength="390.40" waitSteps="0" timeLoss="7.04" rerouteNo="0" devices="tripinfo_92" vType="DEFAULT_VEHTYPE" speedFactor="1.00" vaporized=""/>
    <tripinfo id="88" depart="105.00" departLane="road2_0" departPos="5.10" departSpeed="0.00" departDelay="-0.60" arrival="148.00" arrivalLane="-road4_0" arrivalPos="195.25" arrivalSpeed="13.71" duration="43.00" routeLength="394.90" waitSteps="0" timeLoss="14.08" rerouteNo="0" devices="tripinfo_88" vType="DEFAULT_VEHTYPE" speedFactor="1.00" vaporized=""/>
    <tripinfo id="93" depart="113.00" departLane="road3_0" departPos="5.10" departSpeed="0.00" departDelay="1.40" arrival="149.00" arrivalLane="-road2_0" arrivalPos="195.25" arrivalSpeed="13.79" duration="36.00" routeLength="390.40" waitSteps="0" timeLoss="7.16" rerouteNo="0" devices="tripinfo_93" vType="DEFAULT_VEHTYPE" speedFactor="1.00" vaporized=""/>
    <tripinfo id="91" depart="109.00" departLane="-road1_0" departPos="5.10" departSpeed="0.00" departDelay="-0.20" arrival="151.00" arrivalLane="-road3_0" arrivalPos="195.25" arrivalSpeed="13.82" duration="42.00" routeLength="394.90" waitSteps="1" timeLoss="12.95" rerouteNo="0" devices="tripinfo_91" vType="DEFAULT_VEHTYPE" speedFactor="1.00" vaporized=""/>
    <tripinfo id="90" depart="108.00" departLane="road2_0" departPos="5.10" departSpeed="0.00" departDelay="0.00" arrival="152.00" arrivalLane="-road4_0" arrivalPos="195.25" arrivalSpeed="12.90" duration="44.00" routeLength="394.90" waitSteps="0" timeLoss="15.43" rerouteNo="0" devices="tripinfo_90" vType="DEFAULT_VEHTYPE" speedFactor="1.00" vaporized=""/>
    <tripinfo id="99" depart="118.00" departLane="road4_0" departPos="5.10" departSpeed="0.00" departDelay="-0.80" arrival="153.00" arrivalLane="-road3_0" arrivalPos="195.25" arrivalSpeed="12.99" duration="35.00" routeLength="390.40" waitSteps="0" timeLoss="6.26" rerouteNo="0" devices="tripinfo_99" vType="DEFAULT_VEHTYPE" speedFactor="1.00" vaporized=""/>
    <tripinfo id="94" depart="112.00" departLane="road2_0" departPos="5.10" departSpeed="0.00" departDelay="-0.80" arrival="154.00" arrivalLane="-road4_0" arrivalPos="195.25" arrivalSpeed="13.49" duration="42.00" routeLength="394.90" waitSteps="0" timeLoss="13.15" rerouteNo="0" devices="tripinfo_94" vType="DEFAULT_VEHTYPE" speedFactor="1.00" vaporized=""/>
    <tripinfo id="96" depart="116.00" departLane="road3_0" departPos="5.10" departSpeed="0.00" departDelay="0.80" arrival="156.00" arrivalLane="road1_0" arrivalPos="195.25" arrivalSpeed="13.67" duration="40.00" routeLength="394.90" waitSteps="1" timeLoss="10.67" rerouteNo="0" devices="tripinfo_96" vType="DEFAULT_VEHTYPE" speedFactor="1.00" vaporized=""/>
    <tripinfo id="97" depart="119.00" departLane="road3_0" departPos="5.10" departSpeed="0.00" departDelay="2.60" arrival="157.00" arrivalLane="road1_0" arrivalPos="195.25" arrivalSpeed="13.83" duration="38.00" routeLength="394.90" waitSteps="0" timeLoss="9.43" rerouteNo="0" devices="tripinfo_97" vType="DEFAULT_VEHTYPE" speedFactor="1.00" vaporized=""/>
    <tripinfo id="104" depart="124.00" departLane="road3_0" departPos="5.10" departSpeed="0.00" departDelay="-0.80" arrival="160.00" arrivalLane="-road2_0" arrivalPos="195.25" arrivalSpeed="13.61" duration="36.00" routeLength="390.40" waitSteps="0" timeLoss="7.31" rerouteNo="0" devices="tripinfo_104" vType="DEFAULT_VEHTYPE" speedFactor="1.00" vaporized=""/>
    <tripinfo id="98" depart="117.00" departLane="road2_0" departPos="5.10" departSpeed="0.00" departDelay="-0.60" arrival="160.00" arrivalLane="-road4_0" arrivalPos="195.25" arrivalSpeed="13.68" duration="43.00" routeLength="394.90" waitSteps="1" timeLoss="13.93" rerouteNo="0" devices="tripinfo_98" vType="DEFAULT_VEHTYPE" speedFactor="1.00" vaporized=""/>
    <tripinfo id="100" depart="120.00" departLane="road2_0" departPos="5.10" departSpeed="0.00" departDelay="0.00" arrival="163.00" arrivalLane="-road3_0" arrivalPos="195.25" arrivalSpeed="13.87" duration="43.00" routeLength="395.72" waitSteps="0" timeLoss="13.68" rerouteNo="0" devices="tripinfo_100" vType="DEFAULT_VEHTYPE" speedFactor="1.00" vaporized=""/>
    <tripinfo id="106" depart="127.00" departLane="road4_0" departPos="5.10" departSpeed="0.00" departDelay="-0.20" arrival="165.00" arrivalLane="road1_0" arrivalPos="195.25" arrivalSpeed="13.31" duration="38.00" routeLength="395.72" waitSteps="0" timeLoss="8.78" rerouteNo="0" devices="tripinfo_106" vType="DEFAULT_VEHTYPE" speedFactor="1.00" vaporized=""/>
    <tripinfo id="114" depart="136.00" departLane="road3_0" departPos="5.10" departSpeed="0.00" departDelay="-0.80" arrival="170.00" arrivalLane="road1_0" arrivalPos="195.25" arrivalSpeed="13.12" duration="34.00" routeLength="394.90" waitSteps="0" timeLoss="4.78" rerouteNo="0" devices="tripinfo_114" vType="DEFAULT_VEHTYPE" speedFactor="1.00" vaporized=""/>
    <tripinfo id="112" depart="134.00" departLane="-road1_0" departPos="5.10" departSpeed="0.00" departDelay="-0.40" arrival="174.00" arrivalLane="-road2_0" arrivalPos="195.25" arrivalSpeed="12.67" duration="40.00" routeLength="395.72" waitSteps="1" timeLoss="11.43" rerouteNo="0" devices="tripinfo_112" vType="DEFAULT_VEHTYPE" speedFactor="1.00" vaporized=""/>