<?xml version="1.0" encoding="UTF-8"?>

<!-- generated on 08/11/18 18:45:24 by SUMO Version 0.32.0
<?xml version="1.0" encoding="UTF-8"?>

<configuration xmlns:xsi="http://www.w3.org/2001/XMLSchema-instance" xsi:noNamespaceSchemaLocation="http://sumo.dlr.de/xsd/sumoConfiguration.xsd">

    <input>
        <net-file value="..\..\test_environments\single_intersection_random_trips\newnet.net.xml"/>
        <route-files value="..\..\test_environments\single_intersection_random_trips\newnet.rou.xml"/>
    </input>

    <output>
        <tripinfo-output value="tripinfo.xml"/>
    </output>

    <time>
        <begin value="0"/>
        <end value="10000"/>
    </time>

    <processing>
        <time-to-teleport value="-1"/>
    </processing>

    <traci_server>
        <remote-port value="28923"/>
    </traci_server>

</configuration>
-->

<tripinfos xmlns:xsi="http://www.w3.org/2001/XMLSchema-instance" xsi:noNamespaceSchemaLocation="http://sumo.dlr.de/xsd/tripinfo_file.xsd">
    <tripinfo id="1" depart="1.00" departLane="road3_0" departPos="5.10" departSpeed="0.00" departDelay="-0.20" arrival="35.00" arrivalLane="road1_0" arrivalPos="195.25" arrivalSpeed="13.46" duration="34.00" routeLength="394.90" waitSteps="0" timeLoss="4.68" rerouteNo="0" devices="tripinfo_1" vType="DEFAULT_VEHTYPE" speedFactor="1.00" vaporized=""/>
    <tripinfo id="4" depart="4.00" departLane="road3_0" departPos="5.10" departSpeed="0.00" departDelay="-0.80" arrival="40.00" arrivalLane="-road4_0" arrivalPos="195.25" arrivalSpeed="12.83" duration="36.00" routeLength="395.72" waitSteps="0" timeLoss="6.92" rerouteNo="0" devices="tripinfo_4" vType="DEFAULT_VEHTYPE" speedFactor="1.00" vaporized=""/>
    <tripinfo id="5" depart="6.00" departLane="-road1_0" departPos="5.10" departSpeed="0.00" departDelay="0.00" arrival="40.00" arrivalLane="-road2_0" arrivalPos="195.25" arrivalSpeed="13.18" duration="34.00" routeLength="395.72" waitSteps="0" timeLoss="5.48" rerouteNo="0" devices="tripinfo_5" vType="DEFAULT_VEHTYPE" speedFactor="1.00" vaporized=""/>
    <tripinfo id="7" depart="8.00" departLane="road3_0" departPos="5.10" departSpeed="0.00" departDelay="-0.40" arrival="43.00" arrivalLane="road1_0" arrivalPos="195.25" arrivalSpeed="13.71" duration="35.00" routeLength="394.90" waitSteps="0" timeLoss="5.60" rerouteNo="0" devices="tripinfo_7" vType="DEFAULT_VEHTYPE" speedFactor="1.00" vaporized=""/>
    <tripinfo id="6" depart="9.00" departLane="-road1_0" departPos="5.10" departSpeed="0.00" departDelay="1.80" arrival="43.00" arrivalLane="-road3_0" arrivalPos="195.25" arrivalSpeed="13.23" duration="34.00" routeLength="394.90" waitSteps="0" timeLoss="4.67" rerouteNo="0" devices="tripinfo_6" vType="DEFAULT_VEHTYPE" speedFactor="1.00" vaporized=""/>
    <tripinfo id="11" depart="13.00" departLane="road4_0" departPos="5.10" departSpeed="0.00" departDelay="-0.20" arrival="47.00" arrivalLane="-road3_0" arrivalPos="195.25" arrivalSpeed="13.36" duration="34.00" routeLength="390.40" waitSteps="0" timeLoss="4.97" rerouteNo="0" devices="tripinfo_11" vType="DEFAULT_VEHTYPE" speedFactor="1.00" vaporized=""/>
    <tripinfo id="8" depart="11.00" departLane="road3_0" departPos="5.10" departSpeed="0.00" departDelay="1.40" arrival="48.00" arrivalLane="-road2_0" arrivalPos="195.25" arrivalSpeed="13.31" duration="37.00" routeLength="390.40" waitSteps="1" timeLoss="7.84" rerouteNo="0" devices="tripinfo_8" vType="DEFAULT_VEHTYPE" speedFactor="1.00" vaporized=""/>
    <tripinfo id="14" depart="17.00" departLane="road3_0" departPos="5.10" departSpeed="0.00" departDelay="0.20" arrival="50.00" arrivalLane="-road4_0" arrivalPos="195.25" arrivalSpeed="12.63" duration="33.00" routeLength="395.72" waitSteps="0" timeLoss="5.57" rerouteNo="0" devices="tripinfo_14" vType="DEFAULT_VEHTYPE" speedFactor="1.00" vaporized=""/>
    <tripinfo id="10" depart="12.00" departLane="-road1_0" departPos="5.10" departSpeed="0.00" departDelay="0.00" arrival="50.00" arrivalLane="-road2_0" arrivalPos="195.25" arrivalSpeed="13.36" duration="38.00" routeLength="395.72" waitSteps="1" timeLoss="9.45" rerouteNo="0" devices="tripinfo_10" vType="DEFAULT_VEHTYPE" speedFactor="1.00" vaporized=""/>
    <tripinfo id="13" depart="15.00" departLane="road2_0" departPos="5.10" departSpeed="0.00" departDelay="-0.60" arrival="51.00" arrivalLane="-road3_0" arrivalPos="195.25" arrivalSpeed="13.50" duration="36.00" routeLength="395.72" waitSteps="0" timeLoss="7.09" rerouteNo="0" devices="tripinfo_13" vType="DEFAULT_VEHTYPE" speedFactor="1.00" vaporized=""/>
    <tripinfo id="12" depart="16.00" departLane="road4_0" departPos="5.10" departSpeed="0.00" departDelay="1.60" arrival="53.00" arrivalLane="-road2_0" arrivalPos="195.25" arrivalSpeed="12.92" duration="37.00" routeLength="394.90" waitSteps="0" timeLoss="7.80" rerouteNo="0" devices="tripinfo_12" vType="DEFAULT_VEHTYPE" speedFactor="1.00" vaporized=""/>
    <tripinfo id="18" depart="21.00" departLane="road4_0" departPos="5.10" departSpeed="0.00" departDelay="-0.60" arrival="54.00" arrivalLane="-road3_0" arrivalPos="195.25" arrivalSpeed="12.98" duration="33.00" routeLength="390.40" waitSteps="0" timeLoss="4.72" rerouteNo="0" devices="tripinfo_18" vType="DEFAULT_VEHTYPE" speedFactor="1.00" vaporized=""/>
    <tripinfo id="9" depart="14.00" departLane="road3_0" departPos="5.10" departSpeed="0.00" departDelay="3.20" arrival="56.00" arrivalLane="road1_0" arrivalPos="195.25" arrivalSpeed="13.10" duration="42.00" routeLength="394.90" waitSteps="4" timeLoss="12.60" rerouteNo="0" devices="tripinfo_9" vType="DEFAULT_VEHTYPE" speedFactor="1.00" vaporized=""/>
    <tripinfo id="19" depart="22.00" departLane="-road1_0" departPos="5.10" departSpeed="0.00" departDelay="-0.80" arrival="56.00" arrivalLane="-road4_0" arrivalPos="195.25" arrivalSpeed="13.26" duration="34.00" routeLength="390.40" waitSteps="0" timeLoss="5.76" rerouteNo="0" devices="tripinfo_19" vType="DEFAULT_VEHTYPE" speedFactor="1.00" vaporized=""/>
    <tripinfo id="15" depart="20.00" departLane="road3_0" departPos="5.10" departSpeed="0.00" departDelay="2.00" arrival="59.00" arrivalLane="road1_0" arrivalPos="195.25" arrivalSpeed="13.07" duration="39.00" routeLength="394.90" waitSteps="0" timeLoss="9.88" rerouteNo="0" devices="tripinfo_15" vType="DEFAULT_VEHTYPE" speedFactor="1.00" vaporized=""/>
    <tripinfo id="21" depart="25.00" departLane="road2_0" departPos="5.10" departSpeed="0.00" departDelay="-0.20" arrival="60.00" arrivalLane="-road4_0" arrivalPos="195.25" arrivalSpeed="12.67" duration="35.00" routeLength="394.90" waitSteps="0" timeLoss="6.46" rerouteNo="0" devices="tripinfo_21" vType="DEFAULT_VEHTYPE" speedFactor="1.00" vaporized=""/>
    <tripinfo id="16" depart="23.00" departLane="road3_0" departPos="5.10" departSpeed="0.00" departDelay="3.80" arrival="63.00" arrivalLane="-road4_0" arrivalPos="195.25" arrivalSpeed="12.77" duration="40.00" routeLength="395.72" waitSteps="0" timeLoss="10.73" rerouteNo="0" devices="tripinfo_16" vType="DEFAULT_VEHTYPE" speedFactor="1.00" vaporized=""/>
    <tripinfo id="25" depart="30.00" departLane="-road1_0" departPos="5.10" departSpeed="0.00" departDelay="0.00" arrival="64.00" arrivalLane="-road4_0" arrivalPos="195.25" arrivalSpeed="13.39" duration="34.00" routeLength="390.40" waitSteps="0" timeLoss="5.84" rerouteNo="0" devices="tripinfo_25" vType="DEFAULT_VEHTYPE" speedFactor="1.00" vaporized=""/>
    <tripinfo id="24" depart="28.00" departLane="road3_0" departPos="5.10" departSpeed="0.00" departDelay="-0.80" arrival="64.00" arrivalLane="-road2_0" arrivalPos="195.25" arrivalSpeed="12.67" duration="36.00" routeLength="390.40" waitSteps="0" timeLoss="7.18" rerouteNo="0" devices="tripinfo_24" vType="DEFAULT_VEHTYPE" speedFactor="1.00" vaporized=""/>
    <tripinfo id="26" depart="31.00" departLane="road3_0" departPos="5.10" departSpeed="0.00" departDelay="-0.20" arrival="66.00" arrivalLane="road1_0" arrivalPos="195.25" arrivalSpeed="13.76" duration="35.00" routeLength="394.90" waitSteps="0" timeLoss="5.71" rerouteNo="0" devices="tripinfo_26" vType="DEFAULT_VEHTYPE" speedFactor="1.00" vaporized=""/>
    <tripinfo id="31" depart="37.00" departLane="-road1_0" departPos="5.10" departSpeed="0.00" departDelay="-0.20" arrival="72.00" arrivalLane="-road4_0" arrivalPos="195.25" arrivalSpeed="13.79" duration="35.00" routeLength="390.40" waitSteps="0" timeLoss="6.25" rerouteNo="0" devices="tripinfo_31" vType="DEFAULT_VEHTYPE" speedFactor="1.00" vaporized=""/>
    <tripinfo id="30" depart="36.00" departLane="road2_0" departPos="5.10" departSpeed="0.00" departDelay="0.00" arrival="72.00" arrivalLane="-road3_0" arrivalPos="195.25" arrivalSpeed="12.82" duration="36.00" routeLength="395.72" waitSteps="0" timeLoss="6.98" rerouteNo="0" devices="tripinfo_30" vType="DEFAULT_VEHTYPE" speedFactor="1.00" vaporized=""/>
    <tripinfo id="27" depart="34.00" departLane="road3_0" departPos="5.10" departSpeed="0.00" departDelay="1.60" arrival="75.00" arrivalLane="-road4_0" arrivalPos="195.25" arrivalSpeed="13.79" duration="41.00" routeLength="395.72" waitSteps="1" timeLoss="11.92" rerouteNo="0" devices="tripinfo_27" vType="DEFAULT_VEHTYPE" speedFactor="1.00" vaporized=""/>
    <tripinfo id="32" depart="38.00" departLane="road4_0" departPos="5.10" departSpeed="0.00" departDelay="-0.40" arrival="78.00" arrivalLane="road1_0" arrivalPos="195.25" arrivalSpeed="12.65" duration="40.00" routeLength="395.72" waitSteps="4" timeLoss="10.78" rerouteNo="0" devices="tripinfo_32" vType="DEFAULT_VEHTYPE" speedFactor="1.00" vaporized=""/>
    <tripinfo id="35" depart="42.00" departLane="road2_0" departPos="5.10" departSpeed="0.00" departDelay="0.00" arrival="78.00" arrivalLane="-road3_0" arrivalPos="195.25" arrivalSpeed="13.18" duration="36.00" routeLength="395.72" waitSteps="0" timeLoss="7.22" rerouteNo="0" devices="tripinfo_35" vType="DEFAULT_VEHTYPE" speedFactor="1.00" vaporized=""/>
    <tripinfo id="33" depart="41.00" departLane="road4_0" departPos="5.10" departSpeed="0.00" departDelay="1.40" arrival="80.00" arrivalLane="road1_0" arrivalPos="195.25" arrivalSpeed="12.74" duration="39.00" routeLength="395.72" waitSteps="1" timeLoss="10.05" rerouteNo="0" devices="tripinfo_33" vType="DEFAULT_VEHTYPE" speedFactor="1.00" vaporized=""/>
    <tripinfo id="37" depart="44.00" departLane="road4_0" departPos="5.10" departSpeed="0.00" departDelay="-0.40" arrival="81.00" arrivalLane="-road3_0" arrivalPos="195.25" arrivalSpeed="13.51" duration="37.00" routeLength="390.40" waitSteps="0" timeLoss="8.48" rerouteNo="0" devices="tripinfo_37" vType="DEFAULT_VEHTYPE" speedFactor="1.00" vaporized=""/>
    <tripinfo id="28" depart="37.00" departLane="road3_0" departPos="5.10" departSpeed="0.00" departDelay="3.40" arrival="81.00" arrivalLane="-road2_0" arrivalPos="195.25" arrivalSpeed="13.24" duration="44.00" routeLength="390.40" waitSteps="3" timeLoss="15.63" rerouteNo="0" devices="tripinfo_28" vType="DEFAULT_VEHTYPE" speedFactor="1.00" vaporized=""/>
    <tripinfo id="39" depart="46.00" departLane="road2_0" departPos="5.10" departSpeed="0.00" departDelay="-0.80" arrival="82.00" arrivalLane="road1_0" arrivalPos="195.25" arrivalSpeed="13.12" duration="36.00" routeLength="390.40" waitSteps="0" timeLoss="7.78" rerouteNo="0" devices="tripinfo_39" vType="DEFAULT_VEHTYPE" speedFactor="1.00" vaporized=""/>
    <tripinfo id="40" depart="49.00" departLane="road2_0" departPos="5.10" departSpeed="0.00" departDelay="1.00" arrival="84.00" arrivalLane="road1_0" arrivalPos="195.25" arrivalSpeed="12.72" duration="35.00" routeLength="390.40" waitSteps="0" timeLoss="6.69" rerouteNo="0" devices="tripinfo_40" vType="DEFAULT_VEHTYPE" speedFactor="1.00" vaporized=""/>
    <tripinfo id="29" depart="40.00" departLane="road3_0" departPos="5.10" departSpeed="0.00" departDelay="5.20" arrival="84.00" arrivalLane="-road4_0" arrivalPos="195.25" arrivalSpeed="12.90" duration="44.00" routeLength="395.72" waitSteps="1" timeLoss="15.08" rerouteNo="0" devices="tripinfo_29" vType="DEFAULT_VEHTYPE" speedFactor="1.00" vaporized=""/>
    <tripinfo id="43" depart="51.00" departLane="road4_0" departPos="5.10" departSpeed="0.00" departDelay="-0.60" arrival="84.00" arrivalLane="-road3_0" arrivalPos="195.25" arrivalSpeed="13.38" duration="33.00" routeLength="390.40" waitSteps="0" timeLoss="4.24" rerouteNo="0" devices="tripinfo_43" vType="DEFAULT_VEHTYPE" speedFactor="1.00" vaporized=""/>
    <tripinfo id="38" depart="45.00" departLane="-road1_0" departPos="5.10" departSpeed="0.00" departDelay="-0.60" arrival="85.00" arrivalLane="-road2_0" arrivalPos="195.25" arrivalSpeed="13.48" duration="40.00" routeLength="395.72" waitSteps="2" timeLoss="10.99" rerouteNo="0" devices="tripinfo_38" vType="DEFAULT_VEHTYPE" speedFactor="1.00" vaporized=""/>
    <tripinfo id="36" depart="43.00" departLane="road3_0" departPos="5.10" departSpeed="0.00" departDelay="-0.20" arrival="86.00" arrivalLane="road1_0" arrivalPos="195.25" arrivalSpeed="13.05" duration="43.00" routeLength="394.90" waitSteps="0" timeLoss="14.58" rerouteNo="0" devices="tripinfo_36" vType="DEFAULT_VEHTYPE" speedFactor="1.00" vaporized=""/>
    <tripinfo id="42" depart="50.00" departLane="-road1_0" departPos="5.10" departSpeed="0.00" departDelay="-0.40" arrival="86.00" arrivalLane="-road3_0" arrivalPos="195.25" arrivalSpeed="12.73" duration="36.00" routeLength="394.90" waitSteps="0" timeLoss="7.43" rerouteNo="0" devices="tripinfo_42" vType="DEFAULT_VEHTYPE" speedFactor="1.00" vaporized=""/>
    <tripinfo id="47" depart="56.00" departLane="road4_0" departPos="5.10" departSpeed="0.00" departDelay="-0.40" arrival="89.00" arrivalLane="-road2_0" arrivalPos="195.25" arrivalSpeed="12.74" duration="33.00" routeLength="394.90" waitSteps="0" timeLoss="3.97" rerouteNo="0" devices="tripinfo_47" vType="DEFAULT_VEHTYPE" speedFactor="1.00" vaporized=""/>
    <tripinfo id="44" depart="52.00" departLane="road2_0" departPos="5.10" departSpeed="0.00" departDelay="-0.80" arrival="90.00" arrivalLane="road1_0" arrivalPos="195.25" arrivalSpeed="13.38" duration="38.00" routeLength="390.40" waitSteps="0" timeLoss="9.87" rerouteNo="0" devices="tripinfo_44" vType="DEFAULT_VEHTYPE" speedFactor="1.00" vaporized=""/>
    <tripinfo id="45" depart="54.00" departLane="road3_0" departPos="5.10" departSpeed="0.00" departDelay="0.00" arrival="92.00" arrivalLane="-road4_0" arrivalPos="195.25" arrivalSpeed="13.04" duration="38.00" routeLength="395.72" waitSteps="0" timeLoss="9.25" rerouteNo="0" devices="tripinfo_45" vType="DEFAULT_VEHTYPE" speedFactor="1.00" vaporized=""/>
    <tripinfo id="46" depart="57.00" departLane="road3_0" departPos="5.10" departSpeed="0.00" departDelay="1.80" arrival="95.00" arrivalLane="-road4_0" arrivalPos="195.25" arrivalSpeed="13.87" duration="38.00" routeLength="395.72" waitSteps="0" timeLoss="8.82" rerouteNo="0" devices="tripinfo_46" vType="DEFAULT_VEHTYPE" speedFactor="1.00" vaporized=""/>
    <tripinfo id="53" depart="63.00" departLane="road3_0" departPos="5.10" departSpeed="0.00" departDelay="-0.60" arrival="96.00" arrivalLane="-road2_0" arrivalPos="195.25" arrivalSpeed="13.39" duration="33.00" routeLength="390.40" waitSteps="0" timeLoss="4.62" rerouteNo="0" devices="tripinfo_53" vType="DEFAULT_VEHTYPE" speedFactor="1.00" vaporized=""/>
    <tripinfo id="51" depart="61.00" departLane="road4_0" departPos="5.10" departSpeed="0.00" departDelay="-0.20" arrival="97.00" arrivalLane="road1_0" arrivalPos="195.25" arrivalSpeed="13.72" duration="36.00" routeLength="395.72" waitSteps="0" timeLoss="6.78" rerouteNo="0" devices="tripinfo_51" vType="DEFAULT_VEHTYPE" speedFactor="1.00" vaporized=""/>
    <tripinfo id="52" depart="62.00" departLane="road2_0" departPos="5.10" departSpeed="0.00" departDelay="-0.40" arrival="97.00" arrivalLane="-road3_0" arrivalPos="195.25" arrivalSpeed="12.87" duration="35.00" routeLength="395.72" waitSteps="0" timeLoss="5.90" rerouteNo="0" devices="tripinfo_52" vType="DEFAULT_VEHTYPE" speedFactor="1.00" vaporized=""/>
    <tripinfo id="54" depart="65.00" departLane="road2_0" departPos="5.10" departSpeed="0.00" departDelay="0.20" arrival="98.00" arrivalLane="-road4_0" arrivalPos="195.25" arrivalSpeed="12.60" duration="33.00" routeLength="394.90" waitSteps="0" timeLoss="4.53" rerouteNo="0" devices="tripinfo_54" vType="DEFAULT_VEHTYPE" speedFactor="1.00" vaporized=""/>
    <tripinfo id="56" depart="68.00" departLane="road2_0" departPos="5.10" departSpeed="0.00" departDelay="0.80" arrival="100.00" arrivalLane="road1_0" arrivalPos="195.25" arrivalSpeed="13.79" duration="32.00" routeLength="390.40" waitSteps="0" timeLoss="3.74" rerouteNo="0" devices="tripinfo_56" vType="DEFAULT_VEHTYPE" speedFactor="1.00" vaporized=""/>
    <tripinfo id="59" depart="70.00" departLane="-road1_0" departPos="5.10" departSpeed="0.00" departDelay="-0.80" arrival="104.00" arrivalLane="-road3_0" arrivalPos="195.25" arrivalSpeed="13.72" duration="34.00" routeLength="394.90" waitSteps="0" timeLoss="4.97" rerouteNo="0" devices="tripinfo_59" vType="DEFAULT_VEHTYPE" speedFactor="1.00" vaporized=""/>
    <tripinfo id="57" depart="71.00" departLane="road2_0" departPos="5.10" departSpeed="0.00" departDelay="2.60" arrival="106.00" arrivalLane="-road4_0" arrivalPos="195.25" arrivalSpeed="12.65" duration="35.00" routeLength="394.90" waitSteps="0" timeLoss="5.90" rerouteNo="0" devices="tripinfo_57" vType="DEFAULT_VEHTYPE" speedFactor="1.00" vaporized=""/>
    <tripinfo id="58" depart="74.00" departLane="road2_0" departPos="5.10" departSpeed="0.00" departDelay="4.40" arrival="108.00" arrivalLane="-road4_0" arrivalPos="195.25" arrivalSpeed="13.05" duration="34.00" routeLength="394.90" waitSteps="0" timeLoss="4.70" rerouteNo="0" devices="tripinfo_58" vType="DEFAULT_VEHTYPE" speedFactor="1.00" vaporized=""/>
    <tripinfo id="63" depart="75.00" departLane="-road1_0" departPos="5.10" departSpeed="0.00" departDelay="-0.60" arrival="109.00" arrivalLane="-road4_0" arrivalPos="195.25" arrivalSpeed="13.59" duration="34.00" routeLength="390.40" waitSteps="0" timeLoss="5.70" rerouteNo="0" devices="tripinfo_63" vType="DEFAULT_VEHTYPE" speedFactor="1.00" vaporized=""/>
    <tripinfo id="75" depart="90.00" departLane="road2_0" departPos="5.10" departSpeed="0.00" departDelay="0.00" arrival="109.00" arrivalLane="-road4_0" arrivalPos="195.25" arrivalSpeed="7.51" duration="19.00" routeLength="394.90" waitSteps="0" timeLoss="4.43" rerouteNo="0" devices="tripinfo_75" vType="DEFAULT_VEHTYPE" speedFactor="1.00" vaporized=""/>
    <tripinfo id="60" depart="72.00" departLane="road4_0" departPos="5.10" departSpeed="0.00" departDelay="0.00" arrival="111.00" arrivalLane="road1_0" arrivalPos="195.25" arrivalSpeed="13.42" duration="39.00" routeLength="395.72" waitSteps="0" timeLoss="10.44" rerouteNo="0" devices="tripinfo_60" vType="DEFAULT_VEHTYPE" speedFactor="1.00" vaporized=""/>
    <tripinfo id="64" depart="77.00" departLane="road2_0" departPos="5.10" departSpeed="0.00" departDelay="0.20" arrival="113.00" arrivalLane="-road4_0" arrivalPos="195.25" arrivalSpeed="13.38" duration="36.00" routeLength="394.90" waitSteps="0" timeLoss="6.80" rerouteNo="0" devices="tripinfo_64" vType="DEFAULT_VEHTYPE" speedFactor="1.00" vaporized=""/>
    <tripinfo id="61" depart="75.00" departLane="road4_0" departPos="5.10" departSpeed="0.00" departDelay="1.80" arrival="114.00" arrivalLane="-road2_0" arrivalPos="195.25" arrivalSpeed="12.66" duration="39.00" routeLength="394.90" waitSteps="1" timeLoss="10.34" rerouteNo="0" devices="tripinfo_61" vType="DEFAULT_VEHTYPE" speedFactor="1.00" vaporized=""/>
    <tripinfo id="67" depart="80.00" departLane="road4_0" departPos="5.10" departSpeed="0.00" departDelay="-0.40" arrival="116.00" arrivalLane="-road2_0" arrivalPos="195.25" arrivalSpeed="12.69" duration="36.00" routeLength="394.90" waitSteps="0" timeLoss="7.27" rerouteNo="0" devices="tripinfo_67" vType="DEFAULT_VEHTYPE" speedFactor="1.00" vaporized=""/>
    <tripinfo id="72" depart="86.00" departLane="road3_0" departPos="5.10" departSpeed="0.00" departDelay="-0.40" arrival="119.00" arrivalLane="-road2_0" arrivalPos="195.25" arrivalSpeed="13.64" duration="33.00" routeLength="390.40" waitSteps="0" timeLoss="4.34" rerouteNo="0" devices="tripinfo_72" vType="DEFAULT_VEHTYPE" speedFactor="1.00" vaporized=""/>
    <tripinfo id="73" depart="89.00" departLane="road3_0" departPos="5.10" departSpeed="0.00" departDelay="1.40" arrival="124.00" arrivalLane="-road4_0" arrivalPos="195.25" arrivalSpeed="13.12" duration="35.00" routeLength="395.72" waitSteps="0" timeLoss="5.83" rerouteNo="0" devices="tripinfo_73" vType="DEFAULT_VEHTYPE" speedFactor="1.00" vaporized=""/>
    <tripinfo id="74" depart="88.00" departLane="road4_0" departPos="5.10" departSpeed="0.00" departDelay="-0.80" arrival="126.00" arrivalLane="road1_0" arrivalPos="195.25" arrivalSpeed="13.85" duration="38.00" routeLength="395.72" waitSteps="2" timeLoss="8.39" rerouteNo="0" devices="tripinfo_74" vType="DEFAULT_VEHTYPE" speedFactor="1.00" vaporized=""/>
    <tripinfo id="76" depart="91.00" departLane="road3_0" departPos="5.10" departSpeed="0.00" departDelay="-0.20" arrival="131.00" arrivalLane="-road2_0" arrivalPos="195.25" arrivalSpeed="12.62" duration="40.00" routeLength="390.40" waitSteps="3" timeLoss="10.53" rerouteNo="0" devices="tripinfo_76" vType="DEFAULT_VEHTYPE" speedFactor="1.00" vaporized=""/>
    <tripinfo id="80" depart="96.00" departLane="road2_0" departPos="5.10" departSpeed="0.00" departDelay="0.00" arrival="131.00" arrivalLane="-road3_0" arrivalPos="195.25" arrivalSpeed="13.70" duration="35.00" routeLength="395.72" waitSteps="0" timeLoss="5.66" rerouteNo="0" devices="tripinfo_80" vType="DEFAULT_VEHTYPE" speedFactor="1.00" vaporized=""/>
    <tripinfo id="77" depart="94.00" departLane="road3_0" departPos="5.10" departSpeed="0.00" departDelay="1.60" arrival="132.00" arrivalLane="road1_0" arrivalPos="195.25" arrivalSpeed="12.85" duration="38.00" routeLength="394.90" waitSteps="0" timeLoss="9.55" rerouteNo="0" devices="tripinfo_77" vType="DEFAULT_VEHTYPE" speedFactor="1.00" vaporized=""/>
    <tripinfo id="81" depart="97.00" departLane="-road1_0" departPos="5.10" departSpeed="0.00" departDelay="-0.20" arrival="132.00" arrivalLane="-road4_0" arrivalPos="195.25" arrivalSpeed="13.14" duration="35.00" routeLength="390.40" waitSteps="0" timeLoss="6.04" rerouteNo="0" devices="tripinfo_81" vType="DEFAULT_VEHTYPE" speedFactor="1.00" vaporized=""/>
    <tripinfo id="84" depart="100.00" departLane="road4_0" departPos="5.10" departSpeed="0.00" departDelay="-0.80" arrival="133.00" arrivalLane="-road3_0" arrivalPos="195.25" arrivalSpeed="12.87" duration="33.00" routeLength="390.40" waitSteps="0" timeLoss="4.20" rerouteNo="0" devices="tripinfo_84" vType="DEFAULT_VEHTYPE" speedFactor="1.00" vaporized=""/>
    <tripinfo id="83" depart="99.00" departLane="road2_0" departPos="5.10" departSpeed="0.00" departDelay="-0.60" arrival="135.00" arrivalLane="-road3_0" arrivalPos="195.25" arrivalSpeed="13.88" duration="36.00" routeLength="395.72" waitSteps="0" timeLoss="6.52" rerouteNo="0" devices="tripinfo_83" vType="DEFAULT_VEHTYPE" speedFactor="1.00" vaporized=""/>
    <tripinfo id="78" depart="97.00" departLane="road3_0" departPos="5.10" departSpeed="0.00" departDelay="3.40" arrival="138.00" arrivalLane="road1_0" arrivalPos="195.25" arrivalSpeed="12.79" duration="41.00" routeLength="394.90" waitSteps="0" timeLoss="11.85" rerouteNo="0" devices="tripinfo_78" vType="DEFAULT_VEHTYPE" speedFactor="1.00" vaporized=""/>
    <tripinfo id="87" depart="106.00" departLane="road4_0" departPos="5.10" departSpeed="0.00" departDelay="1.60" arrival="139.00" arrivalLane="road1_0" arrivalPos="195.25" arrivalSpeed="13.62" duration="33.00" routeLength="395.72" waitSteps="0" timeLoss="6.00" rerouteNo="0" devices="tripinfo_87" vType="DEFAULT_VEHTYPE" speedFactor="1.00" vaporized=""/>
    <tripinfo id="85" depart="102.00" departLane="road2_0" departPos="5.10" departSpeed="0.00" departDelay="0.00" arrival="140.00" arrivalLane="-road3_0" arrivalPos="195.25" arrivalSpeed="13.26" duration="38.00" routeLength="395.72" waitSteps="0" timeLoss="9.20" rerouteNo="0" devices="tripinfo_85" vType="DEFAULT_VEHTYPE" speedFactor="1.00" vaporized=""/>
    <tripinfo id="88" depart="105.00" departLane="road2_0" departPos="5.10" departSpeed="0.00" departDelay="-0.60" arrival="142.00" arrivalLane="-road4_0" arrivalPos="195.25" arrivalSpeed="13.39" duration="37.00" routeLength="394.90" waitSteps="0" timeLoss="7.65" rerouteNo="0" devices="tripinfo_88" vType="DEFAULT_VEHTYPE" speedFactor="1.00" vaporized=""/>
    <tripinfo id="92" depart="110.00" departLane="road3_0" departPos="5.10" departSpeed="0.00" departDelay="-0.40" arrival="143.00" arrivalLane="-road2_0" arrivalPos="195.25" arrivalSpeed="13.46" duration="33.00" routeLength="390.40" waitSteps="0" timeLoss="4.50" rerouteNo="0" devices="tripinfo_92" vType="DEFAULT_VEHTYPE" speedFactor="1.00" vaporized=""/>
    <tripinfo id="86" depart="103.00" departLane="road4_0" departPos="5.10" departSpeed="0.00" departDelay="-0.20" arrival="144.00" arrivalLane="road1_0" arrivalPos="195.25" arrivalSpeed="13.03" duration="41.00" routeLength="395.72" waitSteps="3" timeLoss="11.61" rerouteNo="0" devices="tripinfo_86" vType="DEFAULT_VEHTYPE" speedFactor="1.00" vaporized=""/>
    <tripinfo id="91" depart="109.00" departLane="-road1_0" departPos="5.10" departSpeed="0.00" departDelay="-0.20" arrival="144.00" arrivalLane="-road3_0" arrivalPos="195.25" arrivalSpeed="12.96" duration="35.00" routeLength="394.90" waitSteps="0" timeLoss="6.52" rerouteNo="0" devices="tripinfo_91" vType="DEFAULT_VEHTYPE" speedFactor="1.00" vaporized=""/>
    <tripinfo id="90" depart="108.00" departLane="road2_0" departPos="5.10" departSpeed="0.00" departDelay="0.00" arrival="147.00" arrivalLane="-road4_0" arrivalPos="195.25" arrivalSpeed="12.99" duration="39.00" routeLength="394.90" waitSteps="0" timeLoss="9.77" rerouteNo="0" devices="tripinfo_90" vType="DEFAULT_VEHTYPE" speedFactor="1.00" vaporized=""/>
    <tripinfo id="93" depart="113.00" departLane="road3_0" departPos="5.10" departSpeed="0.00" departDelay="1.40" arrival="147.00" arrivalLane="-road2_0" arrivalPos="195.25" arrivalSpeed="13.58" duration="34.00" routeLength="390.40" waitSteps="0" timeLoss="5.00" rerouteNo="0" devices="tripinfo_93" vType="DEFAULT_VEHTYPE" speedFactor="1.00" vaporized=""/>
    <tripinfo id="94" depart="112.00" departLane="road2_0" departPos="5.10" departSpeed="0.00" departDelay="-0.80" arrival="149.00" arrivalLane="-road4_0" arrivalPos="195.25" arrivalSpeed="12.87" duration="37.00" routeLength="394.90" waitSteps="0" timeLoss="7.92" rerouteNo="0" devices="tripinfo_94" vType="DEFAULT_VEHTYPE" speedFactor="1.00" vaporized=""/>
    <tripinfo id="98" depart="117.00" departLane="road2_0" departPos="5.10" departSpeed="0.00" departDelay="-0.60" arrival="151.00" arrivalLane="-road4_0" arrivalPos="195.25" arrivalSpeed="12.86" duration="34.00" routeLength="394.90" waitSteps="0" timeLoss="4.70" rerouteNo="0" devices="tripinfo_98" vType="DEFAULT_VEHTYPE" speedFactor="1.00" vaporized=""/>
    <tripinfo id="96" depart="116.00" departLane="road3_0" departPos="5.10" departSpeed="0.00" departDelay="0.80" arrival="154.00" arrivalLane="road1_0" arrivalPos="195.25" arrivalSpeed="13.64" duration="38.00" routeLength="394.90" waitSteps="0" timeLoss="8.85" rerouteNo="0" devices="tripinfo_96" vType="DEFAULT_VEHTYPE" speedFactor="1.00" vaporized=""/>
    <tripinfo id="99" depart="118.00" departLane="road4_0" departPos="5.10" departSpeed="0.00" departDelay="-0.80" arrival="155.00" arrivalLane="-road3_0" arrivalPos="195.25" arrivalSpeed="13.45" duration="37.00" routeLength="390.40" waitSteps="1" timeLoss="8.31" rerouteNo="0" devices="tripinfo_99" vType="DEFAULT_VEHTYPE" speedFactor="1.00" vaporized=""/>
    <tripinfo id="100" depart="120.00" departLane="road2_0" departPos="5.10" departSpeed="0.00" departDelay="0.00" arrival="157.00" arrivalLane="-road3_0" arrivalPos="195.25" arrivalSpeed="13.29" duration="37.00" routeLength="395.72" waitSteps="0" timeLoss="7.93" rerouteNo="0" devices="tripinfo_100" vType="DEFAULT_VEHTYPE" speedFactor="1.00" vaporized=""/>
    <tripinfo id="97" depart="119.00" departLane="road3_0" departPos="5.10" departSpeed="0.00" departDelay="2.60" arrival="158.00" arrivalLane="road1_0" arrivalPos="195.25" arrivalSpeed="13.45" duration="39.00" routeLength="394.90" waitSteps="0" timeLoss="10.28" rerouteNo="0" devices="tripinfo_97" vType="DEFAULT_VEHTYPE" speedFactor="1.00" vaporized=""/>
    <tripinfo id="101" depart="123.00" departLane="road2_0" departPos="5.10" departSpeed="0.00" departDelay="1.80" arrival="161.00" arrivalLane="road1_0" arrivalPos="195.25" arrivalSpeed="12.91" duration="38.00" routeLength="390.40" waitSteps="0" timeLoss="9.00" rerouteNo="0" devices="tripinfo_101" vType="DEFAULT_VEHTYPE" speedFactor="1.00" vaporized=""/>
    <tripinfo id="102" depart="126.00" departLane="road2_0" departPos="5.10" departSpeed="0.00" departDelay="3.60" arrival="162.00" arrivalLane="road1_0" arrivalPos="195.25" arrivalSpeed="13.34" duration="36.00" routeLength="390.40" waitSteps="0" timeLoss="7.86" rerouteNo="0" devices="tripinfo_102" vType="DEFAULT_VEHTYPE" speedFactor="1.00" vaporized=""/>
    <tripinfo id="104" depart="124.00" departLane="road3_0" departPos="5.10" departSpeed="0.00" departDelay="-0.80" arrival="162.00" arrivalLane="-road2_0" arrivalPos="195.25" arrivalSpeed="12.65" duration="38.00" routeLength="390.40" waitSteps="0" timeLoss="9.22" rerouteNo="0" devices="tripinfo_104" vType="DEFAULT_VEHTYPE" speedFactor="1.00" vaporized=""/>
    <tripinfo id="106" depart="127.00" departLane="road4_0" departPos="5.10" departSpeed="0.00" departDelay="-0.20" arrival="164.00" arrivalLane="road1_0" arrivalPos="195.25" arrivalSpeed="12.69" duration="37.00" routeLength="395.72" waitSteps="1" timeLoss="8.09" rerouteNo="0" devices="tripinfo_106" vType="DEFAULT_VEHTYPE" speedFactor="1.00" vaporized=""/>