<?xml version="1.0" encoding="UTF-8"?>

<!-- generated on 09/01/18 02:28:32 by SUMO Version 0.32.0
<?xml version="1.0" encoding="UTF-8"?>

<configuration xmlns:xsi="http://www.w3.org/2001/XMLSchema-instance" xsi:noNamespaceSchemaLocation="http://sumo.dlr.de/xsd/sumoConfiguration.xsd">

    <input>
        <net-file value="..\..\test_environments\single_intersection_no_traffic\newnet.net.xml"/>
        <route-files value="..\..\test_environments\single_intersection_no_traffic\newnet.rou.xml"/>
    </input>

    <output>
        <tripinfo-output value="tripinfo.xml"/>
    </output>

    <time>
        <begin value="0"/>
        <end value="10000"/>
    </time>

    <processing>
        <time-to-teleport value="-1"/>
    </processing>

    <traci_server>
        <remote-port value="38245"/>
    </traci_server>

</configuration>
-->

<tripinfos xmlns:xsi="http://www.w3.org/2001/XMLSchema-instance" xsi:noNamespaceSchemaLocation="http://sumo.dlr.de/xsd/tripinfo_file.xsd">
    <tripinfo id="2" depart="2.00" departLane="-road1_0" departPos="5.10" departSpeed="0.00" departDelay="-0.40" arrival="38.00" arrivalLane="-road2_0" arrivalPos="195.25" arrivalSpeed="13.26" duration="36.00" routeLength="395.72" waitSteps="0" timeLoss="7.26" rerouteNo="0" devices="tripinfo_2" vType="DEFAULT_VEHTYPE" speedFactor="1.00" vaporized=""/>
    <tripinfo id="3" depart="5.00" departLane="-road1_0" departPos="5.10" departSpeed="0.00" departDelay="1.40" arrival="38.00" arrivalLane="-road4_0" arrivalPos="195.25" arrivalSpeed="13.58" duration="33.00" routeLength="390.40" waitSteps="0" timeLoss="4.71" rerouteNo="0" devices="tripinfo_3" vType="DEFAULT_VEHTYPE" speedFactor="1.00" vaporized=""/>
    <tripinfo id="5" depart="6.00" departLane="road2_0" departPos="5.10" departSpeed="0.00" departDelay="0.00" arrival="41.00" arrivalLane="road1_0" arrivalPos="195.25" arrivalSpeed="13.43" duration="35.00" routeLength="390.40" waitSteps="0" timeLoss="5.98" rerouteNo="0" devices="tripinfo_5" vType="DEFAULT_VEHTYPE" speedFactor="1.00" vaporized=""/>
    <tripinfo id="7" depart="8.00" departLane="-road1_0" departPos="5.10" departSpeed="0.00" departDelay="-0.40" arrival="43.00" arrivalLane="-road2_0" arrivalPos="195.25" arrivalSpeed="12.84" duration="35.00" routeLength="395.72" waitSteps="0" timeLoss="5.77" rerouteNo="0" devices="tripinfo_7" vType="DEFAULT_VEHTYPE" speedFactor="1.00" vaporized=""/>
    <tripinfo id="6" depart="9.00" departLane="road2_0" departPos="5.10" departSpeed="0.00" departDelay="1.80" arrival="43.00" arrivalLane="-road4_0" arrivalPos="195.25" arrivalSpeed="13.12" duration="34.00" routeLength="394.90" waitSteps="0" timeLoss="4.96" rerouteNo="0" devices="tripinfo_6" vType="DEFAULT_VEHTYPE" speedFactor="1.00" vaporized=""/>
    <tripinfo id="0" depart="0.00" departLane="road4_0" departPos="5.10" departSpeed="0.00" departDelay="0.00" arrival="43.00" arrivalLane="-road3_0" arrivalPos="195.25" arrivalSpeed="13.78" duration="43.00" routeLength="390.40" waitSteps="5" timeLoss="14.35" rerouteNo="0" devices="tripinfo_0" vType="DEFAULT_VEHTYPE" speedFactor="1.00" vaporized=""/>
    <tripinfo id="8" depart="12.00" departLane="road2_0" departPos="5.10" departSpeed="0.00" departDelay="2.40" arrival="45.00" arrivalLane="road1_0" arrivalPos="195.25" arrivalSpeed="13.59" duration="33.00" routeLength="390.40" waitSteps="0" timeLoss="4.75" rerouteNo="0" devices="tripinfo_8" vType="DEFAULT_VEHTYPE" speedFactor="1.00" vaporized=""/>
    <tripinfo id="1" depart="3.00" departLane="road4_0" departPos="5.10" departSpeed="0.00" departDelay="1.80" arrival="48.00" arrivalLane="road1_0" arrivalPos="195.25" arrivalSpeed="13.43" duration="45.00" routeLength="395.72" waitSteps="2" timeLoss="16.32" rerouteNo="0" devices="tripinfo_1" vType="DEFAULT_VEHTYPE" speedFactor="1.00" vaporized=""/>
    <tripinfo id="4" depart="6.00" departLane="road4_0" departPos="5.10" departSpeed="0.00" departDelay="1.20" arrival="49.00" arrivalLane="-road3_0" arrivalPos="195.25" arrivalSpeed="13.43" duration="43.00" routeLength="390.40" waitSteps="2" timeLoss="14.63" rerouteNo="0" devices="tripinfo_4" vType="DEFAULT_VEHTYPE" speedFactor="1.00" vaporized=""/>
    <tripinfo id="9" depart="15.00" departLane="road2_0" departPos="5.10" departSpeed="0.00" departDelay="4.20" arrival="51.00" arrivalLane="-road3_0" arrivalPos="195.25" arrivalSpeed="13.17" duration="36.00" routeLength="395.72" waitSteps="0" timeLoss="7.11" rerouteNo="0" devices="tripinfo_9" vType="DEFAULT_VEHTYPE" speedFactor="1.00" vaporized=""/>
    <tripinfo id="15" depart="18.00" departLane="-road1_0" departPos="5.10" departSpeed="0.00" departDelay="0.00" arrival="53.00" arrivalLane="-road3_0" arrivalPos="195.25" arrivalSpeed="13.26" duration="35.00" routeLength="394.90" waitSteps="0" timeLoss="6.21" rerouteNo="0" devices="tripinfo_15" vType="DEFAULT_VEHTYPE" speedFactor="1.00" vaporized=""/>
    <tripinfo id="10" depart="12.00" departLane="road3_0" departPos="5.10" departSpeed="0.00" departDelay="0.00" arrival="55.00" arrivalLane="-road4_0" arrivalPos="195.25" arrivalSpeed="13.74" duration="43.00" routeLength="395.72" waitSteps="6" timeLoss="14.15" rerouteNo="0" devices="tripinfo_10" vType="DEFAULT_VEHTYPE" speedFactor="1.00" vaporized=""/>
    <tripinfo id="11" depart="18.00" departLane="road2_0" departPos="5.10" departSpeed="0.00" departDelay="4.80" arrival="57.00" arrivalLane="road1_0" arrivalPos="195.25" arrivalSpeed="13.88" duration="39.00" routeLength="390.40" waitSteps="1" timeLoss="10.03" rerouteNo="0" devices="tripinfo_11" vType="DEFAULT_VEHTYPE" speedFactor="1.00" vaporized=""/>
    <tripinfo id="12" depart="14.00" departLane="road4_0" departPos="5.10" departSpeed="0.00" departDelay="-0.40" arrival="57.00" arrivalLane="-road3_0" arrivalPos="195.25" arrivalSpeed="12.92" duration="43.00" routeLength="390.40" waitSteps="2" timeLoss="14.81" rerouteNo="0" devices="tripinfo_12" vType="DEFAULT_VEHTYPE" speedFactor="1.00" vaporized=""/>
    <tripinfo id="19" depart="22.00" departLane="road4_0" departPos="5.10" departSpeed="0.00" departDelay="-0.80" arrival="59.00" arrivalLane="-road3_0" arrivalPos="195.25" arrivalSpeed="13.81" duration="37.00" routeLength="390.40" waitSteps="0" timeLoss="8.56" rerouteNo="0" devices="tripinfo_19" vType="DEFAULT_VEHTYPE" speedFactor="1.00" vaporized=""/>
    <tripinfo id="14" depart="16.00" departLane="road3_0" departPos="5.10" departSpeed="0.00" departDelay="-0.80" arrival="60.00" arrivalLane="road1_0" arrivalPos="195.25" arrivalSpeed="12.70" duration="44.00" routeLength="394.90" waitSteps="1" timeLoss="15.18" rerouteNo="0" devices="tripinfo_14" vType="DEFAULT_VEHTYPE" speedFactor="1.00" vaporized=""/>
    <tripinfo id="20" depart="24.00" departLane="road2_0" departPos="5.10" departSpeed="0.00" departDelay="0.00" arrival="63.00" arrivalLane="-road4_0" arrivalPos="195.25" arrivalSpeed="13.76" duration="39.00" routeLength="394.90" waitSteps="0" timeLoss="9.90" rerouteNo="0" devices="tripinfo_20" vType="DEFAULT_VEHTYPE" speedFactor="1.00" vaporized=""/>
    <tripinfo id="24" depart="28.00" departLane="road4_0" departPos="5.10" departSpeed="0.00" departDelay="-0.80" arrival="63.00" arrivalLane="-road2_0" arrivalPos="195.25" arrivalSpeed="12.72" duration="35.00" routeLength="394.90" waitSteps="0" timeLoss="6.19" rerouteNo="0" devices="tripinfo_24" vType="DEFAULT_VEHTYPE" speedFactor="1.00" vaporized=""/>
    <tripinfo id="16" depart="19.00" departLane="road3_0" departPos="5.10" departSpeed="0.00" departDelay="-0.20" arrival="66.00" arrivalLane="-road4_0" arrivalPos="195.25" arrivalSpeed="13.82" duration="47.00" routeLength="395.72" waitSteps="1" timeLoss="18.39" rerouteNo="0" devices="tripinfo_16" vType="DEFAULT_VEHTYPE" speedFactor="1.00" vaporized=""/>
    <tripinfo id="23" depart="27.00" departLane="road2_0" departPos="5.10" departSpeed="0.00" departDelay="-0.60" arrival="66.00" arrivalLane="-road3_0" arrivalPos="195.25" arrivalSpeed="13.32" duration="39.00" routeLength="395.72" waitSteps="0" timeLoss="10.48" rerouteNo="0" devices="tripinfo_23" vType="DEFAULT_VEHTYPE" speedFactor="1.00" vaporized=""/>
    <tripinfo id="21" depart="25.00" departLane="-road1_0" departPos="5.10" departSpeed="0.00" departDelay="-0.20" arrival="66.00" arrivalLane="-road2_0" arrivalPos="195.25" arrivalSpeed="12.83" duration="41.00" routeLength="395.72" waitSteps="4" timeLoss="11.50" rerouteNo="0" devices="tripinfo_21" vType="DEFAULT_VEHTYPE" speedFactor="1.00" vaporized=""/>
    <tripinfo id="26" depart="31.00" departLane="road4_0" departPos="5.10" departSpeed="0.00" departDelay="-0.20" arrival="67.00" arrivalLane="road1_0" arrivalPos="195.25" arrivalSpeed="13.81" duration="36.00" routeLength="395.72" waitSteps="0" timeLoss="6.87" rerouteNo="0" devices="tripinfo_26" vType="DEFAULT_VEHTYPE" speedFactor="1.00" vaporized=""/>
    <tripinfo id="17" depart="22.00" departLane="road3_0" departPos="5.10" departSpeed="0.00" departDelay="1.60" arrival="71.00" arrivalLane="road1_0" arrivalPos="195.25" arrivalSpeed="12.93" duration="49.00" routeLength="394.90" waitSteps="0" timeLoss="20.00" rerouteNo="0" devices="tripinfo_17" vType="DEFAULT_VEHTYPE" speedFactor="1.00" vaporized=""/>
    <tripinfo id="27" depart="32.00" departLane="road3_0" departPos="5.10" departSpeed="0.00" departDelay="-0.40" arrival="74.00" arrivalLane="road1_0" arrivalPos="195.25" arrivalSpeed="13.63" duration="42.00" routeLength="394.90" waitSteps="0" timeLoss="12.61" rerouteNo="0" devices="tripinfo_27" vType="DEFAULT_VEHTYPE" speedFactor="1.00" vaporized=""/>
    <tripinfo id="30" depart="36.00" departLane="road3_0" departPos="5.10" departSpeed="0.00" departDelay="0.00" arrival="75.00" arrivalLane="-road2_0" arrivalPos="195.25" arrivalSpeed="13.59" duration="39.00" routeLength="390.40" waitSteps="0" timeLoss="10.15" rerouteNo="0" devices="tripinfo_30" vType="DEFAULT_VEHTYPE" speedFactor="1.00" vaporized=""/>
    <tripinfo id="35" depart="42.00" departLane="-road1_0" departPos="5.10" departSpeed="0.00" departDelay="0.00" arrival="78.00" arrivalLane="-road2_0" arrivalPos="195.25" arrivalSpeed="13.14" duration="36.00" routeLength="395.72" waitSteps="0" timeLoss="6.87" rerouteNo="0" devices="tripinfo_35" vType="DEFAULT_VEHTYPE" speedFactor="1.00" vaporized=""/>
    <tripinfo id="33" depart="39.00" departLane="road2_0" departPos="5.10" departSpeed="0.00" departDelay="-0.60" arrival="81.00" arrivalLane="-road3_0" arrivalPos="195.25" arrivalSpeed="13.19" duration="42.00" routeLength="395.72" waitSteps="3" timeLoss="12.82" rerouteNo="0" devices="tripinfo_33" vType="DEFAULT_VEHTYPE" speedFactor="1.00" vaporized=""/>
    <tripinfo id="36" depart="43.00" departLane="road2_0" departPos="5.10" departSpeed="0.00" departDelay="-0.20" arrival="83.00" arrivalLane="-road4_0" arrivalPos="195.25" arrivalSpeed="12.61" duration="40.00" routeLength="394.90" waitSteps="0" timeLoss="10.90" rerouteNo="0" devices="tripinfo_36" vType="DEFAULT_VEHTYPE" speedFactor="1.00" vaporized=""/>
    <tripinfo id="41" depart="49.00" departLane="road4_0" departPos="5.10" departSpeed="0.00" departDelay="-0.20" arrival="87.00" arrivalLane="road1_0" arrivalPos="195.25" arrivalSpeed="13.84" duration="38.00" routeLength="395.72" waitSteps="2" timeLoss="9.24" rerouteNo="0" devices="tripinfo_41" vType="DEFAULT_VEHTYPE" speedFactor="1.00" vaporized=""/>
    <tripinfo id="38" depart="46.00" departLane="road2_0" departPos="5.10" departSpeed="0.00" departDelay="0.40" arrival="88.00" arrivalLane="-road3_0" arrivalPos="195.25" arrivalSpeed="13.27" duration="42.00" routeLength="395.72" waitSteps="0" timeLoss="12.97" rerouteNo="0" devices="tripinfo_38" vType="DEFAULT_VEHTYPE" speedFactor="1.00" vaporized=""/>
    <tripinfo id="40" depart="49.00" departLane="road2_0" departPos="5.10" departSpeed="0.00" departDelay="1.00" arrival="89.00" arrivalLane="-road4_0" arrivalPos="195.25" arrivalSpeed="13.03" duration="40.00" routeLength="394.90" waitSteps="0" timeLoss="11.39" rerouteNo="0" devices="tripinfo_40" vType="DEFAULT_VEHTYPE" speedFactor="1.00" vaporized=""/>
    <tripinfo id="45" depart="54.00" departLane="road4_0" departPos="5.10" departSpeed="0.00" departDelay="0.00" arrival="90.00" arrivalLane="-road3_0" arrivalPos="195.25" arrivalSpeed="13.06" duration="36.00" routeLength="390.40" waitSteps="0" timeLoss="7.18" rerouteNo="0" devices="tripinfo_45" vType="DEFAULT_VEHTYPE" speedFactor="1.00" vaporized=""/>
    <tripinfo id="37" depart="45.00" departLane="-road1_0" departPos="5.10" departSpeed="0.00" departDelay="0.60" arrival="92.00" arrivalLane="-road2_0" arrivalPos="195.25" arrivalSpeed="13.31" duration="47.00" routeLength="395.72" waitSteps="5" timeLoss="18.52" rerouteNo="0" devices="tripinfo_37" vType="DEFAULT_VEHTYPE" speedFactor="1.00" vaporized=""/>
    <tripinfo id="48" depart="57.00" departLane="road4_0" departPos="5.10" departSpeed="0.00" departDelay="-0.60" arrival="92.00" arrivalLane="-road3_0" arrivalPos="195.25" arrivalSpeed="12.62" duration="35.00" routeLength="390.40" waitSteps="0" timeLoss="6.21" rerouteNo="0" devices="tripinfo_48" vType="DEFAULT_VEHTYPE" speedFactor="1.00" vaporized=""/>
    <tripinfo id="42" depart="52.00" departLane="road2_0" departPos="5.10" departSpeed="0.00" departDelay="1.60" arrival="93.00" arrivalLane="road1_0" arrivalPos="195.25" arrivalSpeed="13.28" duration="41.00" routeLength="390.40" waitSteps="0" timeLoss="12.78" rerouteNo="0" devices="tripinfo_42" vType="DEFAULT_VEHTYPE" speedFactor="1.00" vaporized=""/>
    <tripinfo id="39" depart="48.00" departLane="-road1_0" departPos="5.10" departSpeed="0.00" departDelay="1.20" arrival="94.00" arrivalLane="-road2_0" arrivalPos="195.25" arrivalSpeed="13.75" duration="46.00" routeLength="395.72" waitSteps="3" timeLoss="17.32" rerouteNo="0" devices="tripinfo_39" vType="DEFAULT_VEHTYPE" speedFactor="1.00" vaporized=""/>
    <tripinfo id="49" depart="58.00" departLane="road2_0" departPos="5.10" departSpeed="0.00" departDelay="-0.80" arrival="95.00" arrivalLane="road1_0" arrivalPos="195.25" arrivalSpeed="12.73" duration="37.00" routeLength="390.40" waitSteps="0" timeLoss="8.60" rerouteNo="0" devices="tripinfo_49" vType="DEFAULT_VEHTYPE" speedFactor="1.00" vaporized=""/>
    <tripinfo id="43" depart="52.00" departLane="-road1_0" departPos="5.10" departSpeed="0.00" departDelay="0.40" arrival="99.00" arrivalLane="-road2_0" arrivalPos="195.25" arrivalSpeed="13.29" duration="47.00" routeLength="395.72" waitSteps="3" timeLoss="18.08" rerouteNo="0" devices="tripinfo_43" vType="DEFAULT_VEHTYPE" speedFactor="1.00" vaporized=""/>
    <tripinfo id="54" depart="64.00" departLane="road3_0" departPos="5.10" departSpeed="0.00" departDelay="-0.80" arrival="100.00" arrivalLane="-road4_0" arrivalPos="195.25" arrivalSpeed="13.27" duration="36.00" routeLength="395.72" waitSteps="0" timeLoss="7.04" rerouteNo="0" devices="tripinfo_54" vType="DEFAULT_VEHTYPE" speedFactor="1.00" vaporized=""/>
    <tripinfo id="55" depart="66.00" departLane="road4_0" departPos="5.10" departSpeed="0.00" departDelay="0.00" arrival="101.00" arrivalLane="-road2_0" arrivalPos="195.25" arrivalSpeed="13.20" duration="35.00" routeLength="394.90" waitSteps="0" timeLoss="5.89" rerouteNo="0" devices="tripinfo_55" vType="DEFAULT_VEHTYPE" speedFactor="1.00" vaporized=""/>
    <tripinfo id="44" depart="55.00" departLane="-road1_0" departPos="5.10" departSpeed="0.00" departDelay="2.20" arrival="103.00" arrivalLane="-road4_0" arrivalPos="195.25" arrivalSpeed="12.71" duration="48.00" routeLength="390.40" waitSteps="2" timeLoss="19.48" rerouteNo="0" devices="tripinfo_44" vType="DEFAULT_VEHTYPE" speedFactor="1.00" vaporized=""/>
    <tripinfo id="50" depart="60.00" departLane="-road1_0" departPos="5.10" departSpeed="0.00" departDelay="0.00" arrival="105.00" arrivalLane="-road4_0" arrivalPos="195.25" arrivalSpeed="13.86" duration="45.00" routeLength="390.40" waitSteps="1" timeLoss="16.24" rerouteNo="0" devices="tripinfo_50" vType="DEFAULT_VEHTYPE" speedFactor="1.00" vaporized=""/>
    <tripinfo id="62" depart="74.00" departLane="road3_0" departPos="5.10" departSpeed="0.00" departDelay="-0.40" arrival="107.00" arrivalLane="-road2_0" arrivalPos="195.25" arrivalSpeed="12.76" duration="33.00" routeLength="390.40" waitSteps="0" timeLoss="4.55" rerouteNo="0" devices="tripinfo_62" vType="DEFAULT_VEHTYPE" speedFactor="1.00" vaporized=""/>
    <tripinfo id="57" depart="68.00" departLane="road2_0" departPos="5.10" departSpeed="0.00" departDelay="-0.40" arrival="108.00" arrivalLane="-road3_0" arrivalPos="195.25" arrivalSpeed="13.08" duration="40.00" routeLength="395.72" waitSteps="4" timeLoss="10.60" rerouteNo="0" devices="tripinfo_57" vType="DEFAULT_VEHTYPE" speedFactor="1.00" vaporized=""/>
    <tripinfo id="51" depart="63.00" departLane="-road1_0" departPos="5.10" departSpeed="0.00" departDelay="1.80" arrival="109.00" arrivalLane="-road2_0" arrivalPos="195.25" arrivalSpeed="13.59" duration="46.00" routeLength="395.72" waitSteps="0" timeLoss="17.12" rerouteNo="0" devices="tripinfo_51" vType="DEFAULT_VEHTYPE" speedFactor="1.00" vaporized=""/>
    <tripinfo id="58" depart="71.00" departLane="road2_0" departPos="5.10" departSpeed="0.00" departDelay="1.40" arrival="110.00" arrivalLane="road1_0" arrivalPos="195.25" arrivalSpeed="12.93" duration="39.00" routeLength="390.40" waitSteps="0" timeLoss="10.04" rerouteNo="0" devices="tripinfo_58" vType="DEFAULT_VEHTYPE" speedFactor="1.00" vaporized=""/>
    <tripinfo id="53" depart="66.00" departLane="-road1_0" departPos="5.10" departSpeed="0.00" departDelay="2.40" arrival="110.00" arrivalLane="-road4_0" arrivalPos="195.25" arrivalSpeed="13.30" duration="44.00" routeLength="390.40" waitSteps="0" timeLoss="15.48" rerouteNo="0" devices="tripinfo_53" vType="DEFAULT_VEHTYPE" speedFactor="1.00" vaporized=""/>
    <tripinfo id="61" depart="74.00" departLane="road2_0" departPos="5.10" departSpeed="0.00" departDelay="0.80" arrival="112.00" arrivalLane="-road4_0" arrivalPos="195.25" arrivalSpeed="13.33" duration="38.00" routeLength="394.90" waitSteps="0" timeLoss="9.24" rerouteNo="0" devices="tripinfo_61" vType="DEFAULT_VEHTYPE" speedFactor="1.00" vaporized=""/>
    <tripinfo id="65" depart="78.00" departLane="road4_0" departPos="5.10" departSpeed="0.00" departDelay="0.00" arrival="114.00" arrivalLane="road1_0" arrivalPos="195.25" arrivalSpeed="13.43" duration="36.00" routeLength="395.72" waitSteps="0" timeLoss="6.81" rerouteNo="0" devices="tripinfo_65" vType="DEFAULT_VEHTYPE" speedFactor="1.00" vaporized=""/>
    <tripinfo id="66" depart="79.00" departLane="road3_0" departPos="5.10" departSpeed="0.00" departDelay="-0.20" arrival="116.00" arrivalLane="road1_0" arrivalPos="195.25" arrivalSpeed="13.72" duration="37.00" routeLength="394.90" waitSteps="0" timeLoss="8.56" rerouteNo="0" devices="tripinfo_66" vType="DEFAULT_VEHTYPE" speedFactor="1.00" vaporized=""/>
    <tripinfo id="68" depart="81.00" departLane="road2_0" departPos="5.10" departSpeed="0.00" departDelay="-0.60" arrival="119.00" arrivalLane="-road3_0" arrivalPos="195.25" arrivalSpeed="12.74" duration="38.00" routeLength="395.72" waitSteps="1" timeLoss="9.42" rerouteNo="0" devices="tripinfo_68" vType="DEFAULT_VEHTYPE" speedFactor="1.00" vaporized=""/>
    <tripinfo id="67" depart="82.00" departLane="road3_0" departPos="5.10" departSpeed="0.00" departDelay="1.60" arrival="122.00" arrivalLane="road1_0" arrivalPos="195.25" arrivalSpeed="12.92" duration="40.00" routeLength="394.90" waitSteps="0" timeLoss="10.90" rerouteNo="0" devices="tripinfo_67" vType="DEFAULT_VEHTYPE" speedFactor="1.00" vaporized=""/>
    <tripinfo id="60" depart="72.00" departLane="-road1_0" departPos="5.10" departSpeed="0.00" departDelay="0.00" arrival="124.00" arrivalLane="-road2_0" arrivalPos="195.25" arrivalSpeed="13.66" duration="52.00" routeLength="395.72" waitSteps="5" timeLoss="23.39" rerouteNo="0" devices="tripinfo_60" vType="DEFAULT_VEHTYPE" speedFactor="1.00" vaporized=""/>
    <tripinfo id="73" depart="87.00" departLane="road3_0" departPos="5.10" departSpeed="0.00" departDelay="-0.60" arrival="124.00" arrivalLane="-road4_0" arrivalPos="195.25" arrivalSpeed="12.63" duration="37.00" routeLength="395.72" waitSteps="0" timeLoss="7.88" rerouteNo="0" devices="tripinfo_73" vType="DEFAULT_VEHTYPE" speedFactor="1.00" vaporized=""/>
    <tripinfo id="64" depart="76.00" departLane="-road1_0" departPos="5.10" departSpeed="0.00" departDelay="-0.80" arrival="127.00" arrivalLane="-road2_0" arrivalPos="195.25" arrivalSpeed="12.68" duration="51.00" routeLength="395.72" waitSteps="3" timeLoss="22.17" rerouteNo="0" devices="tripinfo_64" vType="DEFAULT_VEHTYPE" speedFactor="1.00" vaporized=""/>
    <tripinfo id="69" depart="84.00" departLane="road2_0" departPos="5.10" departSpeed="0.00" departDelay="1.20" arrival="128.00" arrivalLane="road1_0" arrivalPos="195.25" arrivalSpeed="13.29" duration="44.00" routeLength="390.40" waitSteps="5" timeLoss="15.44" rerouteNo="0" devices="tripinfo_69" vType="DEFAULT_VEHTYPE" speedFactor="1.00" vaporized=""/>
    <tripinfo id="71" depart="85.00" departLane="-road1_0" departPos="5.10" departSpeed="0.00" departDelay="-0.20" arrival="131.00" arrivalLane="-road2_0" arrivalPos="195.25" arrivalSpeed="13.18" duration="46.00" routeLength="395.72" waitSteps="2" timeLoss="16.65" rerouteNo="0" devices="tripinfo_71" vType="DEFAULT_VEHTYPE" speedFactor="1.00" vaporized=""/>
    <tripinfo id="74" depart="88.00" departLane="-road1_0" departPos="5.10" departSpeed="0.00" departDelay="-0.80" arrival="132.00" arrivalLane="-road4_0" arrivalPos="195.25" arrivalSpeed="12.78" duration="44.00" routeLength="390.40" waitSteps="0" timeLoss="15.61" rerouteNo="0" devices="tripinfo_74" vType="DEFAULT_VEHTYPE" speedFactor="1.00" vaporized=""/>
    <tripinfo id="70" depart="87.00" departLane="road2_0" departPos="5.10" departSpeed="0.00" departDelay="3.00" arrival="133.00" arrivalLane="-road3_0" arrivalPos="195.25" arrivalSpeed="13.47" duration="46.00" routeLength="395.72" waitSteps="3" timeLoss="17.12" rerouteNo="0" devices="tripinfo_70" vType="DEFAULT_VEHTYPE" speedFactor="1.00" vaporized=""/>
    <tripinfo id="78" depart="93.00" departLane="-road1_0" departPos="5.10" departSpeed="0.00" departDelay="-0.60" arrival="134.00" arrivalLane="-road2_0" arrivalPos="195.25" arrivalSpeed="13.84" duration="41.00" routeLength="395.72" waitSteps="0" timeLoss="12.36" rerouteNo="0" devices="tripinfo_78" vType="DEFAULT_VEHTYPE" speedFactor="1.00" vaporized=""/>
    <tripinfo id="81" depart="97.00" departLane="road3_0" departPos="5.10" departSpeed="0.00" departDelay="-0.20" arrival="134.00" arrivalLane="-road4_0" arrivalPos="195.25" arrivalSpeed="13.18" duration="37.00" routeLength="395.72" waitSteps="0" timeLoss="8.37" rerouteNo="0" devices="tripinfo_81" vType="DEFAULT_VEHTYPE" speedFactor="1.00" vaporized=""/>
    <tripinfo id="82" depart="98.00" departLane="road4_0" departPos="5.10" departSpeed="0.00" departDelay="-0.40" arrival="138.00" arrivalLane="-road2_0" arrivalPos="195.25" arrivalSpeed="13.42" duration="40.00" routeLength="394.90" waitSteps="1" timeLoss="11.18" rerouteNo="0" devices="tripinfo_82" vType="DEFAULT_VEHTYPE" speedFactor="1.00" vaporized=""/>
    <tripinfo id="76" depart="91.00" departLane="road2_0" departPos="5.10" departSpeed="0.00" departDelay="-0.20" arrival="140.00" arrivalLane="-road3_0" arrivalPos="195.25" arrivalSpeed="13.45" duration="49.00" routeLength="395.72" waitSteps="2" timeLoss="19.98" rerouteNo="0" devices="tripinfo_76" vType="DEFAULT_VEHTYPE" speedFactor="1.00" vaporized=""/>
    <tripinfo id="83" depart="100.00" departLane="road3_0" departPos="5.10" departSpeed="0.00" departDelay="0.40" arrival="142.00" arrivalLane="-road4_0" arrivalPos="195.25" arrivalSpeed="13.43" duration="42.00" routeLength="395.72" waitSteps="4" timeLoss="13.43" rerouteNo="0" devices="tripinfo_83" vType="DEFAULT_VEHTYPE" speedFactor="1.00" vaporized=""/>
    <tripinfo id="80" depart="96.00" departLane="road2_0" departPos="5.10" departSpeed="0.00" departDelay="0.00" arrival="145.00" arrivalLane="-road4_0" arrivalPos="195.25" arrivalSpeed="13.34" duration="49.00" routeLength="394.90" waitSteps="1" timeLoss="20.53" rerouteNo="0" devices="tripinfo_80" vType="DEFAULT_VEHTYPE" speedFactor="1.00" vaporized=""/>
    <tripinfo id="93" depart="111.00" departLane="road4_0" departPos="5.10" departSpeed="0.00" departDelay="-0.60" arrival="146.00" arrivalLane="-road2_0" arrivalPos="195.25" arrivalSpeed="13.32" duration="35.00" routeLength="394.90" waitSteps="0" timeLoss="6.12" rerouteNo="0" devices="tripinfo_93" vType="DEFAULT_VEHTYPE" speedFactor="1.00" vaporized=""/>
    <tripinfo id="85" depart="102.00" departLane="road2_0" departPos="5.10" departSpeed="0.00" departDelay="0.00" arrival="148.00" arrivalLane="-road3_0" arrivalPos="195.25" arrivalSpeed="13.86" duration="46.00" routeLength="395.72" waitSteps="0" timeLoss="17.49" rerouteNo="0" devices="tripinfo_85" vType="DEFAULT_VEHTYPE" speedFactor="1.00" vaporized=""/>
    <tripinfo id="87" depart="104.00" departLane="road3_0" departPos="5.10" departSpeed="0.00" departDelay="-0.40" arrival="152.00" arrivalLane="-road4_0" arrivalPos="195.25" arrivalSpeed="13.04" duration="48.00" routeLength="395.72" waitSteps="4" timeLoss="18.79" rerouteNo="0" devices="tripinfo_87" vType="DEFAULT_VEHTYPE" speedFactor="1.00" vaporized=""/>
    <tripinfo id="95" depart="114.00" departLane="road3_0" departPos="5.10" departSpeed="0.00" departDelay="0.00" arrival="153.00" arrivalLane="-road2_0" arrivalPos="195.25" arrivalSpeed="12.70" duration="39.00" routeLength="390.40" waitSteps="0" timeLoss="10.84" rerouteNo="0" devices="tripinfo_95" vType="DEFAULT_VEHTYPE" speedFactor="1.00" vaporized=""/>
    <tripinfo id="96" depart="115.00" departLane="road4_0" departPos="5.10" departSpeed="0.00" departDelay="-0.20" arrival="154.00" arrivalLane="-road3_0" arrivalPos="195.25" arrivalSpeed="13.86" duration="39.00" routeLength="390.40" waitSteps="1" timeLoss="10.85" rerouteNo="0" devices="tripinfo_96" vType="DEFAULT_VEHTYPE" speedFactor="1.00" vaporized=""/>
    <tripinfo id="101" depart="121.00" departLane="road3_0" departPos="5.10" departSpeed="0.00" departDelay="-0.20" arrival="155.00" arrivalLane="-road2_0" arrivalPos="195.25" arrivalSpeed="12.65" duration="34.00" routeLength="390.40" waitSteps="0" timeLoss="5.77" rerouteNo="0" devices="tripinfo_101" vType="DEFAULT_VEHTYPE" speedFactor="1.00" vaporized=""/>
    <tripinfo id="89" depart="106.00" departLane="road2_0" departPos="5.10" departSpeed="0.00" departDelay="-0.80" arrival="157.00" arrivalLane="-road3_0" arrivalPos="195.25" arrivalSpeed="12.60" duration="51.00" routeLength="395.72" waitSteps="1" timeLoss="22.33" rerouteNo="0" devices="tripinfo_89" vType="DEFAULT_VEHTYPE" speedFactor="1.00" vaporized=""/>
    <tripinfo id="79" depart="96.00" departLane="-road1_0" departPos="5.10" departSpeed="0.00" departDelay="1.20" arrival="159.00" arrivalLane="-road2_0" arrivalPos="195.25" arrivalSpeed="12.67" duration="63.00" routeLength="395.72" waitSteps="15" timeLoss="34.47" rerouteNo="0" devices="tripinfo_79" vType="DEFAULT_VEHTYPE" speedFactor="1.00" vaporized=""/>
    <tripinfo id="88" depart="105.00" departLane="-road1_0" departPos="5.10" departSpeed="0.00" departDelay="-0.60" arrival="162.00" arrivalLane="-road4_0" arrivalPos="195.25" arrivalSpeed="13.21" duration="57.00" routeLength="390.40" waitSteps="13" timeLoss="28.50" rerouteNo="0" devices="tripinfo_88" vType="DEFAULT_VEHTYPE" speedFactor="1.00" vaporized=""/>
    <tripinfo id="105" depart="126.00" departLane="road2_0" departPos="5.10" departSpeed="0.00" departDelay="0.00" arrival="164.00" arrivalLane="-road4_0" arrivalPos="195.25" arrivalSpeed="13.89" duration="38.00" routeLength="394.90" waitSteps="0" timeLoss="9.34" rerouteNo="0" devices="tripinfo_105" vType="DEFAULT_VEHTYPE" speedFactor="1.00" vaporized=""/>
    <tripinfo id="90" depart="108.00" departLane="-road1_0" departPos="5.10" departSpeed="0.00" departDelay="0.00" arrival="167.00" arrivalLane="-road2_0" arrivalPos="195.25" arrivalSpeed="12.89" duration="59.00" routeLength="395.72" waitSteps="11" timeLoss="30.12" rerouteNo="0" devices="tripinfo_90" vType="DEFAULT_VEHTYPE" speedFactor="1.00" vaporized=""/>
    <tripinfo id="111" depart="133.00" departLane="road4_0" departPos="5.10" departSpeed="0.00" departDelay="-0.20" arrival="169.00" arrivalLane="road1_0" arrivalPos="195.25" arrivalSpeed="12.81" duration="36.00" routeLength="395.72" waitSteps="0" timeLoss="6.67" rerouteNo="0" devices="tripinfo_111" vType="DEFAULT_VEHTYPE" speedFactor="1.00" vaporized=""/>
    <tripinfo id="107" depart="129.00" departLane="road2_0" departPos="5.10" departSpeed="0.00" departDelay="0.60" arrival="170.00" arrivalLane="-road3_0" arrivalPos="195.25" arrivalSpeed="13.46" duration="41.00" routeLength="395.72" waitSteps="2" timeLoss="12.24" rerouteNo="0" devices="tripinfo_107" vType="DEFAULT_VEHTYPE" speedFactor="1.00" vaporized=""/>
    <tripinfo id="114" depart="136.00" departLane="road3_0" departPos="5.10" departSpeed="0.00" departDelay="-0.80" arrival="173.00" arrivalLane="-road2_0" arrivalPos="195.25" arrivalSpeed="13.31" duration="37.00" routeLength="390.40" waitSteps="1" timeLoss="7.90" rerouteNo="0" devices="tripinfo_114" vType="DEFAULT_VEHTYPE" speedFactor="1.00" vaporized=""/>
    <tripinfo id="91" depart="111.00" departLane="-road1_0" departPos="5.10" departSpeed="0.00" departDelay="1.80" arrival="173.00" arrivalLane="-road3_0" arrivalPos="195.25" arrivalSpeed="12.65" duration="62.00" routeLength="394.90" waitSteps="13" timeLoss="33.40" rerouteNo="0" devices="tripinfo_91" vType="DEFAULT_VEHTYPE" speedFactor="1.00" vaporized=""/>
    <tripinfo id="112" depart="136.00" departLane="road4_0" departPos="5.10" departSpeed="0.00" departDelay="1.60" arrival="175.00" arrivalLane="-road2_0" arrivalPos="195.25" arrivalSpeed="12.90" duration="39.00" routeLength="394.90" waitSteps="1" timeLoss="10.22" rerouteNo="0" devices="tripinfo_112" vType="DEFAULT_VEHTYPE" speedFactor="1.00" vaporized=""/>