<?xml version="1.0" encoding="UTF-8"?>

<!-- generated on 04/20/18 00:39:56 by SUMO Version 0.31.0
<?xml version="1.0" encoding="UTF-8"?>

<configuration xmlns:xsi="http://www.w3.org/2001/XMLSchema-instance" xsi:noNamespaceSchemaLocation="http://sumo.dlr.de/xsd/sumoConfiguration.xsd">

    <input>
        <net-file value="..\..\test_environments\single_intersection_map\newnet.net.xml"/>
        <route-files value="..\..\test_environments\single_intersection_map\newnet.rou.xml"/>
    </input>

    <output>
        <tripinfo-output value="tripinfo.xml"/>
    </output>

    <time>
        <begin value="0"/>
        <end value="10000"/>
    </time>

    <processing>
        <time-to-teleport value="-1"/>
    </processing>

    <traci_server>
        <remote-port value="52163"/>
    </traci_server>

</configuration>
-->

<tripinfos xmlns:xsi="http://www.w3.org/2001/XMLSchema-instance" xsi:noNamespaceSchemaLocation="http://sumo.dlr.de/xsd/tripinfo_file.xsd">
    <tripinfo id="type11.0" depart="3.00" departLane="road3_0" departPos="5.60" departSpeed="0.00" departDelay="3.00" arrival="22.00" arrivalLane="-road2_0" arrivalPos="66.23" arrivalSpeed="13.49" duration="19.00" routeLength="172.92" waitSteps="0" timeLoss="6.22" rerouteNo="0" devices="tripinfo_type11.0" vType="CarB" speedFactor="1.00" vaporized=""/>
    <tripinfo id="type2.0" depart="0.00" departLane="road3_0" departPos="5.60" departSpeed="0.00" departDelay="0.00" arrival="28.00" arrivalLane="road1_0" arrivalPos="199.35" arrivalSpeed="13.53" duration="28.00" routeLength="310.49" waitSteps="0" timeLoss="5.18" rerouteNo="0" devices="tripinfo_type2.0" vType="CarB" speedFactor="1.00" vaporized=""/>
    <tripinfo id="type12.0" depart="7.00" departLane="road3_0" departPos="5.10" departSpeed="0.00" departDelay="7.00" arrival="29.00" arrivalLane="-road4_0" arrivalPos="55.50" arrivalSpeed="12.43" duration="22.00" routeLength="168.41" waitSteps="0" timeLoss="9.24" rerouteNo="0" devices="tripinfo_type12.0" vType="CarA" speedFactor="1.00" vaporized=""/>
    <tripinfo id="type3.0" depart="0.00" departLane="road4_0" departPos="5.60" departSpeed="0.00" departDelay="0.00" arrival="34.00" arrivalLane="-road2_0" arrivalPos="66.23" arrivalSpeed="12.68" duration="34.00" routeLength="125.99" waitSteps="8" timeLoss="24.63" rerouteNo="0" devices="tripinfo_type3.0" vType="CarB" speedFactor="1.00" vaporized=""/>
    <tripinfo id="type5.0" depart="4.00" departLane="-road1_0" departPos="5.10" departSpeed="0.00" departDelay="4.00" arrival="40.00" arrivalLane="-road2_0" arrivalPos="66.23" arrivalSpeed="11.34" duration="36.00" routeLength="270.96" waitSteps="0" timeLoss="16.14" rerouteNo="0" devices="tripinfo_type5.0" vType="CarA" speedFactor="1.00" vaporized=""/>
    <tripinfo id="type1.0" depart="0.00" departLane="-road1_0" departPos="5.10" departSpeed="0.00" departDelay="0.00" arrival="41.00" arrivalLane="-road3_0" arrivalPos="107.12" arrivalSpeed="12.72" duration="41.00" routeLength="311.07" waitSteps="3" timeLoss="18.12" rerouteNo="0" devices="tripinfo_type1.0" vType="CarA" speedFactor="1.00" vaporized=""/>
    <tripinfo id="type6.0" depart="7.00" departLane="-road1_0" departPos="5.60" departSpeed="0.00" departDelay="7.00" arrival="42.00" arrivalLane="-road4_0" arrivalPos="55.50" arrivalSpeed="11.47" duration="35.00" routeLength="254.62" waitSteps="0" timeLoss="16.32" rerouteNo="0" devices="tripinfo_type6.0" vType="CarB" speedFactor="1.00" vaporized=""/>
    <tripinfo id="type11.1" depart="24.00" departLane="road3_0" departPos="5.60" departSpeed="0.00" departDelay="4.00" arrival="43.00" arrivalLane="-road2_0" arrivalPos="66.23" arrivalSpeed="13.60" duration="19.00" routeLength="172.92" waitSteps="0" timeLoss="5.82" rerouteNo="0" devices="tripinfo_type11.1" vType="CarB" speedFactor="1.00" vaporized=""/>
    <tripinfo id="type12.1" depart="28.00" departLane="road3_0" departPos="5.10" departSpeed="0.00" departDelay="8.00" arrival="46.00" arrivalLane="-road4_0" arrivalPos="55.50" arrivalSpeed="12.47" duration="18.00" routeLength="168.41" waitSteps="0" timeLoss="5.42" rerouteNo="0" devices="tripinfo_type12.1" vType="CarA" speedFactor="1.00" vaporized=""/>
    <tripinfo id="type1.1" depart="20.00" departLane="-road1_0" departPos="5.10" departSpeed="0.00" departDelay="0.00" arrival="48.00" arrivalLane="-road3_0" arrivalPos="107.12" arrivalSpeed="11.87" duration="28.00" routeLength="311.07" waitSteps="0" timeLoss="5.00" rerouteNo="0" devices="tripinfo_type1.1" vType="CarA" speedFactor="1.00" vaporized=""/>
    <tripinfo id="type5.1" depart="23.00" departLane="-road1_0" departPos="5.10" departSpeed="0.00" departDelay="3.00" arrival="49.00" arrivalLane="-road2_0" arrivalPos="66.23" arrivalSpeed="11.87" duration="26.00" routeLength="270.96" waitSteps="0" timeLoss="5.88" rerouteNo="0" devices="tripinfo_type5.1" vType="CarA" speedFactor="1.00" vaporized=""/>
    <tripinfo id="type2.1" depart="20.00" departLane="road3_0" departPos="5.60" departSpeed="0.00" departDelay="0.00" arrival="50.00" arrivalLane="road1_0" arrivalPos="199.35" arrivalSpeed="13.48" duration="30.00" routeLength="310.49" waitSteps="0" timeLoss="7.44" rerouteNo="0" devices="tripinfo_type2.1" vType="CarB" speedFactor="1.00" vaporized=""/>
    <tripinfo id="type6.1" depart="26.00" departLane="-road1_0" departPos="5.60" departSpeed="0.00" departDelay="6.00" arrival="52.00" arrivalLane="-road4_0" arrivalPos="55.50" arrivalSpeed="12.88" duration="26.00" routeLength="254.62" waitSteps="0" timeLoss="6.92" rerouteNo="0" devices="tripinfo_type6.1" vType="CarB" speedFactor="1.00" vaporized=""/>
    <tripinfo id="type4.0" depart="0.00" departLane="road2_0" departPos="5.10" departSpeed="0.00" departDelay="0.00" arrival="67.00" arrivalLane="-road4_0" arrivalPos="55.50" arrivalSpeed="13.41" duration="67.00" routeLength="127.19" waitSteps="44" timeLoss="57.27" rerouteNo="0" devices="tripinfo_type4.0" vType="CarA" speedFactor="1.00" vaporized=""/>
    <tripinfo id="type2.2" depart="40.00" departLane="road3_0" departPos="5.60" departSpeed="0.00" departDelay="0.00" arrival="70.00" arrivalLane="road1_0" arrivalPos="199.35" arrivalSpeed="13.46" duration="30.00" routeLength="310.49" waitSteps="0" timeLoss="7.45" rerouteNo="0" devices="tripinfo_type2.2" vType="CarB" speedFactor="1.00" vaporized=""/>
    <tripinfo id="type9.0" depart="7.00" departLane="road4_0" departPos="5.10" departSpeed="0.00" departDelay="7.00" arrival="77.00" arrivalLane="-road3_0" arrivalPos="107.12" arrivalSpeed="13.16" duration="70.00" routeLength="162.78" waitSteps="30" timeLoss="57.73" rerouteNo="0" devices="tripinfo_type9.0" vType="CarA" speedFactor="1.00" vaporized=""/>
    <tripinfo id="type3.1" depart="20.00" departLane="road4_0" departPos="5.60" departSpeed="0.00" departDelay="0.00" arrival="78.00" arrivalLane="-road2_0" arrivalPos="66.23" arrivalSpeed="13.42" duration="58.00" routeLength="125.99" waitSteps="21" timeLoss="48.11" rerouteNo="0" devices="tripinfo_type3.1" vType="CarB" speedFactor="1.00" vaporized=""/>
    <tripinfo id="type4.1" depart="20.00" departLane="road2_0" departPos="5.10" departSpeed="0.00" departDelay="0.00" arrival="81.00" arrivalLane="-road4_0" arrivalPos="55.50" arrivalSpeed="12.96" duration="61.00" routeLength="127.19" waitSteps="33" timeLoss="51.36" rerouteNo="0" devices="tripinfo_type4.1" vType="CarA" speedFactor="1.00" vaporized=""/>
    <tripinfo id="type7.0" depart="3.00" departLane="road2_0" departPos="5.60" departSpeed="0.00" departDelay="3.00" arrival="82.00" arrivalLane="road1_0" arrivalPos="199.35" arrivalSpeed="13.80" duration="79.00" routeLength="265.57" waitSteps="41" timeLoss="59.54" rerouteNo="0" devices="tripinfo_type7.0" vType="CarB" speedFactor="1.00" vaporized=""/>
    <tripinfo id="type8.0" depart="4.00" departLane="road4_0" departPos="5.10" departSpeed="0.00" departDelay="4.00" arrival="84.00" arrivalLane="road1_0" arrivalPos="199.35" arrivalSpeed="12.43" duration="80.00" routeLength="260.05" waitSteps="35" timeLoss="60.94" rerouteNo="0" devices="tripinfo_type8.0" vType="CarA" speedFactor="1.00" vaporized=""/>
    <tripinfo id="type10.0" depart="7.00" departLane="road2_0" departPos="5.60" departSpeed="0.00" departDelay="7.00" arrival="86.00" arrivalLane="-road3_0" arrivalPos="107.12" arrivalSpeed="12.68" duration="79.00" routeLength="178.79" waitSteps="39" timeLoss="65.47" rerouteNo="0" devices="tripinfo_type10.0" vType="CarB" speedFactor="1.00" vaporized=""/>
    <tripinfo id="type9.1" depart="27.00" departLane="road4_0" departPos="5.10" departSpeed="0.00" departDelay="7.00" arrival="88.00" arrivalLane="-road3_0" arrivalPos="107.12" arrivalSpeed="11.20" duration="61.00" routeLength="162.78" waitSteps="23" timeLoss="48.84" rerouteNo="0" devices="tripinfo_type9.1" vType="CarA" speedFactor="1.00" vaporized=""/>
    <tripinfo id="type3.2" depart="40.00" departLane="road4_0" departPos="5.60" departSpeed="0.00" departDelay="0.00" arrival="91.00" arrivalLane="-road2_0" arrivalPos="66.23" arrivalSpeed="12.10" duration="51.00" routeLength="125.99" waitSteps="17" timeLoss="41.41" rerouteNo="0" devices="tripinfo_type3.2" vType="CarB" speedFactor="1.00" vaporized=""/>
    <tripinfo id="type7.1" depart="23.00" departLane="road2_0" departPos="5.60" departSpeed="0.00" departDelay="3.00" arrival="95.00" arrivalLane="road1_0" arrivalPos="199.35" arrivalSpeed="13.41" duration="72.00" routeLength="265.57" waitSteps="32" timeLoss="52.83" rerouteNo="0" devices="tripinfo_type7.1" vType="CarB" speedFactor="1.00" vaporized=""/>
    <tripinfo id="type10.1" depart="27.00" departLane="road2_0" departPos="5.60" departSpeed="0.00" departDelay="7.00" arrival="97.00" arrivalLane="-road3_0" arrivalPos="107.12" arrivalSpeed="12.94" duration="70.00" routeLength="178.79" waitSteps="29" timeLoss="56.31" rerouteNo="0" devices="tripinfo_type10.1" vType="CarB" speedFactor="1.00" vaporized=""/>
    <tripinfo id="type11.2" depart="45.00" departLane="road3_0" departPos="5.60" departSpeed="0.00" departDelay="5.00" arrival="97.00" arrivalLane="-road2_0" arrivalPos="66.23" arrivalSpeed="12.55" duration="52.00" routeLength="172.92" waitSteps="29" timeLoss="39.24" rerouteNo="0" devices="tripinfo_type11.2" vType="CarB" speedFactor="1.00" vaporized=""/>
    <tripinfo id="type12.2" depart="48.00" departLane="road3_0" departPos="5.10" departSpeed="0.00" departDelay="8.00" arrival="97.00" arrivalLane="-road4_0" arrivalPos="55.50" arrivalSpeed="13.07" duration="49.00" routeLength="168.41" waitSteps="25" timeLoss="36.61" rerouteNo="0" devices="tripinfo_type12.2" vType="CarA" speedFactor="1.00" vaporized=""/>
    <tripinfo id="type8.1" depart="23.00" departLane="road4_0" departPos="5.10" departSpeed="0.00" departDelay="3.00" arrival="99.00" arrivalLane="road1_0" arrivalPos="199.35" arrivalSpeed="13.74" duration="76.00" routeLength="260.05" waitSteps="25" timeLoss="56.93" rerouteNo="0" devices="tripinfo_type8.1" vType="CarA" speedFactor="1.00" vaporized=""/>
    <tripinfo id="type5.2" depart="44.00" departLane="-road1_0" departPos="5.10" departSpeed="0.00" departDelay="4.00" arrival="99.00" arrivalLane="-road2_0" arrivalPos="66.23" arrivalSpeed="12.53" duration="55.00" routeLength="270.96" waitSteps="23" timeLoss="35.22" rerouteNo="0" devices="tripinfo_type5.2" vType="CarA" speedFactor="1.00" vaporized=""/>
    <tripinfo id="type1.2" depart="40.00" departLane="-road1_0" departPos="5.10" departSpeed="0.00" departDelay="0.00" arrival="100.00" arrivalLane="-road3_0" arrivalPos="107.12" arrivalSpeed="13.50" duration="60.00" routeLength="311.07" waitSteps="24" timeLoss="36.78" rerouteNo="0" devices="tripinfo_type1.2" vType="CarA" speedFactor="1.00" vaporized=""/>
    <tripinfo id="type6.2" depart="47.00" departLane="-road1_0" departPos="5.60" departSpeed="0.00" departDelay="7.00" arrival="102.00" arrivalLane="-road4_0" arrivalPos="55.50" arrivalSpeed="10.79" duration="55.00" routeLength="254.62" waitSteps="19" timeLoss="35.94" rerouteNo="0" devices="tripinfo_type6.2" vType="CarB" speedFactor="1.00" vaporized=""/>
    <tripinfo id="type11.3" depart="65.00" departLane="road3_0" departPos="5.60" departSpeed="0.00" departDelay="5.00" arrival="103.00" arrivalLane="-road2_0" arrivalPos="66.23" arrivalSpeed="12.75" duration="38.00" routeLength="172.92" waitSteps="11" timeLoss="25.09" rerouteNo="0" devices="tripinfo_type11.3" vType="CarB" speedFactor="1.00" vaporized=""/>
    <tripinfo id="type8.2" depart="43.00" departLane="road4_0" departPos="5.10" departSpeed="0.00" departDelay="3.00" arrival="105.00" arrivalLane="road1_0" arrivalPos="199.35" arrivalSpeed="13.59" duration="62.00" routeLength="260.05" waitSteps="17" timeLoss="42.84" rerouteNo="0" devices="tripinfo_type8.2" vType="CarA" speedFactor="1.00" vaporized=""/>
    <tripinfo id="type12.3" depart="68.00" departLane="road3_0" departPos="5.10" departSpeed="0.00" departDelay="8.00" arrival="105.00" arrivalLane="-road4_0" arrivalPos="55.50" arrivalSpeed="13.04" duration="37.00" routeLength="168.41" waitSteps="8" timeLoss="24.86" rerouteNo="0" devices="tripinfo_type12.3" vType="CarA" speedFactor="1.00" vaporized=""/>
    <tripinfo id="type5.3" depart="63.00" departLane="-road1_0" departPos="5.10" departSpeed="0.00" departDelay="3.00" arrival="106.00" arrivalLane="-road2_0" arrivalPos="66.23" arrivalSpeed="12.28" duration="43.00" routeLength="270.96" waitSteps="7" timeLoss="23.10" rerouteNo="0" devices="tripinfo_type5.3" vType="CarA" speedFactor="1.00" vaporized=""/>
    <tripinfo id="type1.3" depart="60.00" departLane="-road1_0" departPos="5.10" departSpeed="0.00" departDelay="0.00" arrival="107.00" arrivalLane="-road3_0" arrivalPos="107.12" arrivalSpeed="13.44" duration="47.00" routeLength="311.07" waitSteps="11" timeLoss="23.94" rerouteNo="0" devices="tripinfo_type1.3" vType="CarA" speedFactor="1.00" vaporized=""/>
    <tripinfo id="type6.3" depart="66.00" departLane="-road1_0" departPos="5.60" departSpeed="0.00" departDelay="6.00" arrival="107.00" arrivalLane="-road4_0" arrivalPos="55.50" arrivalSpeed="12.36" duration="41.00" routeLength="254.62" waitSteps="9" timeLoss="22.45" rerouteNo="0" devices="tripinfo_type6.3" vType="CarB" speedFactor="1.00" vaporized=""/>
    <tripinfo id="type11.4" depart="84.00" departLane="road3_0" departPos="5.60" departSpeed="0.00" departDelay="4.00" arrival="110.00" arrivalLane="-road2_0" arrivalPos="66.23" arrivalSpeed="13.18" duration="26.00" routeLength="172.92" waitSteps="0" timeLoss="12.70" rerouteNo="0" devices="tripinfo_type11.4" vType="CarB" speedFactor="1.00" vaporized=""/>
    <tripinfo id="type2.3" depart="60.00" departLane="road3_0" departPos="5.60" departSpeed="0.00" departDelay="0.00" arrival="111.00" arrivalLane="road1_0" arrivalPos="199.35" arrivalSpeed="12.82" duration="51.00" routeLength="310.49" waitSteps="13" timeLoss="28.02" rerouteNo="0" devices="tripinfo_type2.3" vType="CarB" speedFactor="1.00" vaporized=""/>
    <tripinfo id="type12.4" depart="87.00" departLane="road3_0" departPos="5.10" departSpeed="0.00" departDelay="7.00" arrival="112.00" arrivalLane="-road4_0" arrivalPos="55.50" arrivalSpeed="11.27" duration="25.00" routeLength="168.41" waitSteps="0" timeLoss="12.66" rerouteNo="0" devices="tripinfo_type12.4" vType="CarA" speedFactor="1.00" vaporized=""/>
    <tripinfo id="type5.4" depart="84.00" departLane="-road1_0" departPos="5.10" departSpeed="0.00" departDelay="4.00" arrival="114.00" arrivalLane="-road2_0" arrivalPos="66.23" arrivalSpeed="13.18" duration="30.00" routeLength="270.96" waitSteps="0" timeLoss="9.58" rerouteNo="0" devices="tripinfo_type5.4" vType="CarA" speedFactor="1.00" vaporized=""/>
    <tripinfo id="type6.4" depart="87.00" departLane="-road1_0" departPos="5.60" departSpeed="0.00" departDelay="7.00" arrival="114.00" arrivalLane="-road4_0" arrivalPos="55.50" arrivalSpeed="13.48" duration="27.00" routeLength="254.62" waitSteps="0" timeLoss="8.23" rerouteNo="0" devices="tripinfo_type6.4" vType="CarB" speedFactor="1.00" vaporized=""/>
    <tripinfo id="type1.4" depart="80.00" departLane="-road1_0" departPos="5.10" departSpeed="0.00" departDelay="0.00" arrival="115.00" arrivalLane="-road3_0" arrivalPos="107.12" arrivalSpeed="13.49" duration="35.00" routeLength="311.07" waitSteps="0" timeLoss="12.00" rerouteNo="0" devices="tripinfo_type1.4" vType="CarA" speedFactor="1.00" vaporized=""/>
    <tripinfo id="type2.4" depart="80.00" departLane="road3_0" departPos="5.60" departSpeed="0.00" departDelay="0.00" arrival="119.00" arrivalLane="road1_0" arrivalPos="199.35" arrivalSpeed="13.21" duration="39.00" routeLength="310.49" waitSteps="0" timeLoss="15.87" rerouteNo="0" devices="tripinfo_type2.4" vType="CarB" speedFactor="1.00" vaporized=""/>
    <tripinfo id="type11.5" depart="104.00" departLane="road3_0" departPos="5.60" departSpeed="0.00" departDelay="4.00" arrival="124.00" arrivalLane="-road2_0" arrivalPos="66.23" arrivalSpeed="13.74" duration="20.00" routeLength="172.92" waitSteps="0" timeLoss="6.82" rerouteNo="0" devices="tripinfo_type11.5" vType="CarB" speedFactor="1.00" vaporized=""/>
    <tripinfo id="type1.5" depart="100.00" departLane="-road1_0" departPos="5.10" departSpeed="0.00" departDelay="0.00" arrival="129.00" arrivalLane="-road3_0" arrivalPos="107.12" arrivalSpeed="12.67" duration="29.00" routeLength="311.07" waitSteps="0" timeLoss="6.36" rerouteNo="0" devices="tripinfo_type1.5" vType="CarA" speedFactor="1.00" vaporized=""/>
    <tripinfo id="type2.5" depart="100.00" departLane="road3_0" departPos="5.60" departSpeed="0.00" departDelay="0.00" arrival="130.00" arrivalLane="road1_0" arrivalPos="199.35" arrivalSpeed="13.83" duration="30.00" routeLength="310.49" waitSteps="0" timeLoss="7.57" rerouteNo="0" devices="tripinfo_type2.5" vType="CarB" speedFactor="1.00" vaporized=""/>
    <tripinfo id="type4.2" depart="40.00" departLane="road2_0" departPos="5.10" departSpeed="0.00" departDelay="0.00" arrival="131.00" arrivalLane="-road4_0" arrivalPos="55.50" arrivalSpeed="12.90" duration="91.00" routeLength="127.19" waitSteps="56" timeLoss="81.03" rerouteNo="0" devices="tripinfo_type4.2" vType="CarA" speedFactor="1.00" vaporized=""/>
    <tripinfo id="type9.2" depart="72.00" departLane="road4_0" departPos="5.10" departSpeed="0.00" departDelay="32.00" arrival="134.00" arrivalLane="-road3_0" arrivalPos="107.12" arrivalSpeed="12.29" duration="62.00" routeLength="162.78" waitSteps="32" timeLoss="50.01" rerouteNo="0" devices="tripinfo_type9.2" vType="CarA" speedFactor="1.00" vaporized=""/>
    <tripinfo id="type3.3" depart="76.00" departLane="road4_0" departPos="5.60" departSpeed="0.00" departDelay="16.00" arrival="134.00" arrivalLane="-road2_0" arrivalPos="66.23" arrivalSpeed="13.76" duration="58.00" routeLength="125.99" waitSteps="30" timeLoss="48.29" rerouteNo="0" devices="tripinfo_type3.3" vType="CarB" speedFactor="1.00" vaporized=""/>
    <tripinfo id="type9.3" depart="85.00" departLane="road4_0" departPos="5.10" departSpeed="0.00" departDelay="25.00" arrival="140.00" arrivalLane="-road3_0" arrivalPos="107.12" arrivalSpeed="11.45" duration="55.00" routeLength="162.78" waitSteps="30" timeLoss="43.11" rerouteNo="0" devices="tripinfo_type9.3" vType="CarA" speedFactor="1.00" vaporized=""/>
    <tripinfo id="type3.4" depart="89.00" departLane="road4_0" departPos="5.60" departSpeed="0.00" departDelay="9.00" arrival="140.00" arrivalLane="-road2_0" arrivalPos="66.23" arrivalSpeed="13.35" duration="51.00" routeLength="125.99" waitSteps="30" timeLoss="41.31" rerouteNo="0" devices="tripinfo_type3.4" vType="CarB" speedFactor="1.00" vaporized=""/>
    <tripinfo id="type7.2" depart="43.00" departLane="road2_0" departPos="5.60" departSpeed="0.00" departDelay="3.00" arrival="145.00" arrivalLane="road1_0" arrivalPos="199.35" arrivalSpeed="13.81" duration="102.00" routeLength="265.57" waitSteps="52" timeLoss="82.00" rerouteNo="0" devices="tripinfo_type7.2" vType="CarB" speedFactor="1.00" vaporized=""/>
    <tripinfo id="type4.3" depart="76.00" departLane="road2_0" departPos="5.10" departSpeed="0.00" departDelay="16.00" arrival="145.00" arrivalLane="-road4_0" arrivalPos="55.50" arrivalSpeed="11.62" duration="69.00" routeLength="127.19" waitSteps="31" timeLoss="59.48" rerouteNo="0" devices="tripinfo_type4.3" vType="CarA" speedFactor="1.00" vaporized=""/>
    <tripinfo id="type8.3" depart="79.00" departLane="road4_0" departPos="5.10" departSpeed="0.00" departDelay="19.00" arrival="148.00" arrivalLane="road1_0" arrivalPos="199.35" arrivalSpeed="13.56" duration="69.00" routeLength="260.05" waitSteps="29" timeLoss="49.31" rerouteNo="0" devices="tripinfo_type8.3" vType="CarA" speedFactor="1.00" vaporized=""/>
    <tripinfo id="type10.2" depart="70.00" departLane="road2_0" departPos="5.60" departSpeed="0.00" departDelay="30.00" arrival="150.00" arrivalLane="-road3_0" arrivalPos="107.12" arrivalSpeed="13.67" duration="80.00" routeLength="178.79" waitSteps="35" timeLoss="66.42" rerouteNo="0" devices="tripinfo_type10.2" vType="CarB" speedFactor="1.00" vaporized=""/>
    <tripinfo id="type3.5" depart="131.00" departLane="road4_0" departPos="5.60" departSpeed="0.00" departDelay="31.00" arrival="151.00" arrivalLane="-road2_0" arrivalPos="66.23" arrivalSpeed="12.53" duration="20.00" routeLength="125.99" waitSteps="1" timeLoss="10.72" rerouteNo="0" devices="tripinfo_type3.5" vType="CarB" speedFactor="1.00" vaporized=""/>
    <tripinfo id="type9.4" depart="96.00" departLane="road4_0" departPos="5.10" departSpeed="0.00" departDelay="16.00" arrival="152.00" arrivalLane="-road3_0" arrivalPos="107.12" arrivalSpeed="12.28" duration="56.00" routeLength="162.78" waitSteps="25" timeLoss="43.59" rerouteNo="0" devices="tripinfo_type9.4" vType="CarA" speedFactor="1.00" vaporized=""/>
    <tripinfo id="type4.4" depart="90.00" departLane="road2_0" departPos="5.10" departSpeed="0.00" departDelay="10.00" arrival="156.00" arrivalLane="-road4_0" arrivalPos="55.50" arrivalSpeed="11.59" duration="66.00" routeLength="127.19" waitSteps="31" timeLoss="56.64" rerouteNo="0" devices="tripinfo_type4.4" vType="CarA" speedFactor="1.00" vaporized=""/>
    <tripinfo id="type7.3" depart="80.00" departLane="road2_0" departPos="5.60" departSpeed="0.00" departDelay="20.00" arrival="160.00" arrivalLane="road1_0" arrivalPos="199.35" arrivalSpeed="13.15" duration="80.00" routeLength="265.57" waitSteps="29" timeLoss="60.06" rerouteNo="0" devices="tripinfo_type7.3" vType="CarB" speedFactor="1.00" vaporized=""/>
    <tripinfo id="type5.5" depart="104.00" departLane="-road1_0" departPos="5.10" departSpeed="0.00" departDelay="4.00" arrival="160.00" arrivalLane="-road2_0" arrivalPos="66.23" arrivalSpeed="12.39" duration="56.00" routeLength="270.96" waitSteps="23" timeLoss="35.91" rerouteNo="0" devices="tripinfo_type5.5" vType="CarA" speedFactor="1.00" vaporized=""/>
    <tripinfo id="type12.5" depart="108.00" departLane="road3_0" departPos="5.10" departSpeed="0.00" departDelay="8.00" arrival="161.00" arrivalLane="-road4_0" arrivalPos="55.50" arrivalSpeed="13.23" duration="53.00" routeLength="168.41" waitSteps="24" timeLoss="40.44" rerouteNo="0" devices="tripinfo_type12.5" vType="CarA" speedFactor="1.00" vaporized=""/>
    <tripinfo id="type10.3" depart="85.00" departLane="road2_0" departPos="5.60" departSpeed="0.00" departDelay="25.00" arrival="162.00" arrivalLane="-road3_0" arrivalPos="107.12" arrivalSpeed="12.09" duration="77.00" routeLength="178.79" waitSteps="29" timeLoss="63.75" rerouteNo="0" devices="tripinfo_type10.3" vType="CarB" speedFactor="1.00" vaporized=""/>
    <tripinfo id="type8.4" depart="94.00" departLane="road4_0" departPos="5.10" departSpeed="0.00" departDelay="14.00" arrival="163.00" arrivalLane="road1_0" arrivalPos="199.35" arrivalSpeed="13.00" duration="69.00" routeLength="260.05" waitSteps="31" timeLoss="50.21" rerouteNo="0" devices="tripinfo_type8.4" vType="CarA" speedFactor="1.00" vaporized=""/>
    <tripinfo id="type6.5" depart="108.00" departLane="-road1_0" departPos="5.60" departSpeed="0.00" departDelay="8.00" arrival="163.00" arrivalLane="-road4_0" arrivalPos="55.50" arrivalSpeed="13.69" duration="55.00" routeLength="254.62" waitSteps="21" timeLoss="36.38" rerouteNo="0" devices="tripinfo_type6.5" vType="CarB" speedFactor="1.00" vaporized=""/>
    <tripinfo id="type8.5" depart="135.00" departLane="road4_0" departPos="5.10" departSpeed="0.00" departDelay="35.00" arrival="166.00" arrivalLane="road1_0" arrivalPos="199.35" arrivalSpeed="11.54" duration="31.00" routeLength="260.05" waitSteps="1" timeLoss="11.54" rerouteNo="0" devices="tripinfo_type8.5" vType="CarA" speedFactor="1.00" vaporized=""/>
    <tripinfo id="type11.6" depart="125.00" departLane="road3_0" departPos="5.60" departSpeed="0.00" departDelay="5.00" arrival="166.00" arrivalLane="-road2_0" arrivalPos="66.23" arrivalSpeed="12.13" duration="41.00" routeLength="172.92" waitSteps="10" timeLoss="27.92" rerouteNo="0" devices="tripinfo_type11.6" vType="CarB" speedFactor="1.00" vaporized=""/>
    <tripinfo id="type12.6" depart="128.00" departLane="road3_0" departPos="5.10" departSpeed="0.00" departDelay="8.00" arrival="167.00" arrivalLane="-road4_0" arrivalPos="55.50" arrivalSpeed="12.70" duration="39.00" routeLength="168.41" waitSteps="9" timeLoss="26.29" rerouteNo="0" devices="tripinfo_type12.6" vType="CarA" speedFactor="1.00" vaporized=""/>
    <tripinfo id="type1.6" depart="120.00" departLane="-road1_0" departPos="5.10" departSpeed="0.00" departDelay="0.00" arrival="169.00" arrivalLane="-road3_0" arrivalPos="107.12" arrivalSpeed="11.84" duration="49.00" routeLength="311.07" waitSteps="12" timeLoss="26.58" rerouteNo="0" devices="tripinfo_type1.6" vType="CarA" speedFactor="1.00" vaporized=""/>
    <tripinfo id="type6.6" depart="125.00" departLane="-road1_0" departPos="5.60" departSpeed="0.00" departDelay="5.00" arrival="170.00" arrivalLane="-road4_0" arrivalPos="55.50" arrivalSpeed="12.73" duration="45.00" routeLength="254.62" waitSteps="10" timeLoss="26.40" rerouteNo="0" devices="tripinfo_type6.6" vType="CarB" speedFactor="1.00" vaporized=""/>
    <tripinfo id="type5.6" depart="123.00" departLane="-road1_0" departPos="5.10" departSpeed="0.00" departDelay="3.00" arrival="172.00" arrivalLane="-road2_0" arrivalPos="66.23" arrivalSpeed="12.08" duration="49.00" routeLength="270.96" waitSteps="12" timeLoss="28.68" rerouteNo="0" devices="tripinfo_type5.6" vType="CarA" speedFactor="1.00" vaporized=""/>
    <tripinfo id="type2.6" depart="120.00" departLane="road3_0" departPos="5.60" departSpeed="0.00" departDelay="0.00" arrival="174.00" arrivalLane="road1_0" arrivalPos="199.35" arrivalSpeed="12.57" duration="54.00" routeLength="310.49" waitSteps="14" timeLoss="31.07" rerouteNo="0" devices="tripinfo_type2.6" vType="CarB" speedFactor="1.00" vaporized=""/>
    <tripinfo id="type11.7" depart="144.00" departLane="road3_0" departPos="5.60" departSpeed="0.00" departDelay="4.00" arrival="174.00" arrivalLane="-road2_0" arrivalPos="66.23" arrivalSpeed="13.69" duration="30.00" routeLength="172.92" waitSteps="0" timeLoss="16.98" rerouteNo="0" devices="tripinfo_type11.7" vType="CarB" speedFactor="1.00" vaporized=""/>
    <tripinfo id="type1.7" depart="140.00" departLane="-road1_0" departPos="5.10" departSpeed="0.00" departDelay="0.00" arrival="176.00" arrivalLane="-road3_0" arrivalPos="107.12" arrivalSpeed="12.07" duration="36.00" routeLength="311.07" waitSteps="0" timeLoss="13.28" rerouteNo="0" devices="tripinfo_type1.7" vType="CarA" speedFactor="1.00" vaporized=""/>
    <tripinfo id="type5.7" depart="143.00" departLane="-road1_0" departPos="5.10" departSpeed="0.00" departDelay="3.00" arrival="176.00" arrivalLane="-road2_0" arrivalPos="66.23" arrivalSpeed="12.26" duration="33.00" routeLength="270.96" waitSteps="0" timeLoss="12.98" rerouteNo="0" devices="tripinfo_type5.7" vType="CarA" speedFactor="1.00" vaporized=""/>
    <tripinfo id="type6.7" depart="146.00" departLane="-road1_0" departPos="5.60" departSpeed="0.00" departDelay="6.00" arrival="177.00" arrivalLane="-road4_0" arrivalPos="55.50" arrivalSpeed="13.36" duration="31.00" routeLength="254.62" waitSteps="0" timeLoss="11.88" rerouteNo="0" devices="tripinfo_type6.7" vType="CarB" speedFactor="1.00" vaporized=""/>
    <tripinfo id="type2.7" depart="140.00" departLane="road3_0" departPos="5.60" departSpeed="0.00" departDelay="0.00" arrival="180.00" arrivalLane="road1_0" arrivalPos="199.35" arrivalSpeed="12.99" duration="40.00" routeLength="310.49" waitSteps="0" timeLoss="17.07" rerouteNo="0" devices="tripinfo_type2.7" vType="CarB" speedFactor="1.00" vaporized=""/>
    <tripinfo id="type12.7" depart="149.00" departLane="road3_0" departPos="5.10" departSpeed="0.00" departDelay="9.00" arrival="181.00" arrivalLane="-road4_0" arrivalPos="55.50" arrivalSpeed="12.65" duration="32.00" routeLength="168.41" waitSteps="1" timeLoss="19.00" rerouteNo="0" devices="tripinfo_type12.7" vType="CarA" speedFactor="1.00" vaporized=""/>
    <tripinfo id="type11.8" depart="164.00" departLane="road3_0" departPos="5.60" departSpeed="0.00" departDelay="4.00" arrival="185.00" arrivalLane="-road2_0" arrivalPos="66.23" arrivalSpeed="13.65" duration="21.00" routeLength="172.92" waitSteps="0" timeLoss="7.61" rerouteNo="0" devices="tripinfo_type11.8" vType="CarB" speedFactor="1.00" vaporized=""/>
    <tripinfo id="type1.8" depart="160.00" departLane="-road1_0" departPos="5.10" departSpeed="0.00" departDelay="0.00" arrival="189.00" arrivalLane="-road3_0" arrivalPos="107.12" arrivalSpeed="13.40" duration="29.00" routeLength="311.07" waitSteps="0" timeLoss="5.79" rerouteNo="0" devices="tripinfo_type1.8" vType="CarA" speedFactor="1.00" vaporized=""/>
    <tripinfo id="type2.8" depart="160.00" departLane="road3_0" departPos="5.60" departSpeed="0.00" departDelay="0.00" arrival="190.00" arrivalLane="road1_0" arrivalPos="199.35" arrivalSpeed="13.36" duration="30.00" routeLength="310.49" waitSteps="0" timeLoss="7.17" rerouteNo="0" devices="tripinfo_type2.8" vType="CarB" speedFactor="1.00" vaporized=""/>